
     Program PHONON v.7.2 starts on  8May2023 at 19:31: 6 

     This program is part of the open-source Quantum ESPRESSO suite
     for quantum simulation of materials; please cite
         "P. Giannozzi et al., J. Phys.:Condens. Matter 21 395502 (2009);
         "P. Giannozzi et al., J. Phys.:Condens. Matter 29 465901 (2017);
         "P. Giannozzi et al., J. Chem. Phys. 152 154105 (2020);
          URL http://www.quantum-espresso.org", 
     in publications or presentations arising from this work. More details at
     http://www.quantum-espresso.org/quote

     Serial version
     514259 MiB available memory on the printing compute node when the environment starts
 
     Waiting for input...
     Reading input from standard input

     Reading xml data from directory:

     ./pwscf.save/
 
     file Si.pbe-n-kjpaw_psl.1.0.0.UPF: wavefunction(s)  3S 3P renormalized

     IMPORTANT: XC functional enforced from input :
     Exchange-correlation= PBE
                           (   1   4   3   4   0   0   0)
     Any further DFT definition will be discarded
     Please, verify this is what you really want

 
     G-vector sticks info
     --------------------
     sticks:   dense  smooth     PW     G-vecs:    dense   smooth      PW
     Sum        1165    1165    361                26565    26565    4573
 
     Using Slab Decomposition
 
     Reading collected, re-writing distributed wavefunctions in ./


     Dynamical matrices for ( 4, 4, 4)  uniform grid of q-points
     (   8 q-points):
       N         xq(1)         xq(2)         xq(3) 
       1   0.000000000   0.000000000   0.000000000
       2  -0.250000000   0.250000000  -0.250000000
       3   0.500000000  -0.500000000   0.500000000
       4   0.000000000   0.500000000   0.000000000
       5   0.750000000  -0.250000000   0.750000000
       6   0.500000000   0.000000000   0.500000000
       7   0.000000000  -1.000000000   0.000000000
       8  -0.500000000  -1.000000000   0.000000000

     Calculation of q =    0.0000000   0.0000000   0.0000000

     phonons of Si in Diamond structure                                         

     bravais-lattice index     =            2
     lattice parameter (alat)  =      10.3352  a.u.
     unit-cell volume          =     275.9921 (a.u.)^3
     number of atoms/cell      =            2
     number of atomic types    =            1
     kinetic-energy cut-off    =      80.0000  Ry
     charge density cut-off    =     320.0000  Ry
     convergence threshold     =      1.0E-14
     beta                      =       0.7000
     number of iterations used =            4
     Exchange-correlation= PBE
                           (   1   4   3   4   0   0   0)


     celldm(1)=   10.33520  celldm(2)=    0.00000  celldm(3)=    0.00000
     celldm(4)=    0.00000  celldm(5)=    0.00000  celldm(6)=    0.00000

     crystal axes: (cart. coord. in units of alat)
               a(1) = ( -0.5000  0.0000  0.5000 )  
               a(2) = (  0.0000  0.5000  0.5000 )  
               a(3) = ( -0.5000  0.5000  0.0000 )  

     reciprocal axes: (cart. coord. in units 2 pi/alat)
               b(1) = ( -1.0000 -1.0000  1.0000 )  
               b(2) = (  1.0000  1.0000  1.0000 )  
               b(3) = ( -1.0000  1.0000 -1.0000 )  


     Atoms inside the unit cell: 

     Cartesian axes

     site n.  atom      mass           positions (alat units)
        1     Si  28.0850   tau(    1) = (    0.00000    0.00000    0.00000  )
        2     Si  28.0850   tau(    2) = (   -0.25000    0.25000    0.25000  )

     Computing dynamical matrix for 
                    q = (   0.0000000   0.0000000   0.0000000 )
 
     49 Sym.Ops. (with q -> -q+G )


     G cutoff =  865.8208  (  26565 G-vectors)     FFT grid: ( 48, 48, 48)
     number of k points=   408

     PseudoPot. # 1 for Si read from file:
     ../pseudo/Si.pbe-n-kjpaw_psl.1.0.0.UPF
     MD5 check sum: c39c59da582df4a0d9f10159256ea34e
     Pseudo is Projector augmented-wave + core cor, Zval =  4.0
     Generated using &quot;atomic&quot; code by A. Dal Corso  v.6.3
     Shape of augmentation charge: PSQ
     Using radial grid of 1141 points,  6 beta functions with: 
                l(1) =   0
                l(2) =   0
                l(3) =   1
                l(4) =   1
                l(5) =   2
                l(6) =   2
     Q(r) pseudized with 0 coefficients 


     Mode symmetry, O_h (m-3m)  point group:


     Electric field:
     Dielectric constant
     Born effective charges in two ways 


     Atomic displacements:
     There are    2 irreducible representations

     Representation     1      3 modes -  To be done

     Representation     2      3 modes -  To be done



     Alpha used in Ewald sum =   2.8000
     PHONON       :     12.72s CPU     13.36s WALL


     Electric Fields Calculation

      iter #   1 total cpu time :   242.4 secs   av.it.:   6.2
      thresh= 1.000E-02 alpha_mix =  0.700 |ddv_scf|^2 =  5.820E-08

      iter #   2 total cpu time :   355.2 secs   av.it.:  11.6
      thresh= 2.413E-05 alpha_mix =  0.700 |ddv_scf|^2 =  3.325E-09

      iter #   3 total cpu time :   465.3 secs   av.it.:  11.3
      thresh= 5.766E-06 alpha_mix =  0.700 |ddv_scf|^2 =  2.116E-10

      iter #   4 total cpu time :   572.5 secs   av.it.:  10.9
      thresh= 1.455E-06 alpha_mix =  0.700 |ddv_scf|^2 =  2.244E-12

      iter #   5 total cpu time :   680.2 secs   av.it.:  10.9
      thresh= 1.498E-07 alpha_mix =  0.700 |ddv_scf|^2 =  5.136E-15

     End of electric fields calculation

          Dielectric constant in cartesian axis 

          (      12.970938302      -0.000000000      -0.000000000 )
          (      -0.000000000      12.970938302       0.000000000 )
          (       0.000000000       0.000000000      12.970938302 )

          Effective charges (d Force / dE) in cartesian axis without acoustic sum rule applied (asr)

           atom      1   Si Mean Z*:        0.00002
      Ex  (        0.00002        0.00000        0.00000 )
      Ey  (        0.00000        0.00002       -0.00000 )
      Ez  (        0.00000       -0.00000        0.00002 )
           atom      2   Si Mean Z*:        0.00002
      Ex  (        0.00002       -0.00000       -0.00000 )
      Ey  (       -0.00000        0.00002        0.00000 )
      Ez  (       -0.00000        0.00000        0.00002 )

          Effective charges Sum: Mean:        0.00004
              0.00004        0.00000       -0.00000
              0.00000        0.00004       -0.00000
             -0.00000        0.00000        0.00004

          Effective charges (d Force / dE) in cartesian axis with asr applied: 
           atom      1   Si Mean Z*:        0.00000
      E*x (        0.00000        0.00000        0.00000 )
      E*y (        0.00000        0.00000       -0.00000 )
      E*z (        0.00000       -0.00000        0.00000 )
           atom      2   Si Mean Z*:       -0.00000
      E*x (       -0.00000       -0.00000       -0.00000 )
      E*y (       -0.00000       -0.00000        0.00000 )
      E*z (       -0.00000        0.00000       -0.00000 )


     Representation #   1 modes #   1   2   3

     Self-consistent Calculation

      iter #   1 total cpu time :   831.8 secs   av.it.:   5.4
      thresh= 1.000E-02 alpha_mix =  0.700 |ddv_scf|^2 =  1.484E-08

      iter #   2 total cpu time :   941.6 secs   av.it.:  11.2
      thresh= 1.218E-05 alpha_mix =  0.700 |ddv_scf|^2 =  1.000E-09

      iter #   3 total cpu time :  1049.7 secs   av.it.:  11.0
      thresh= 3.163E-06 alpha_mix =  0.700 |ddv_scf|^2 =  7.393E-11

      iter #   4 total cpu time :  1154.2 secs   av.it.:  10.6
      thresh= 8.598E-07 alpha_mix =  0.700 |ddv_scf|^2 =  3.198E-12

      iter #   5 total cpu time :  1254.6 secs   av.it.:  10.0
      thresh= 1.788E-07 alpha_mix =  0.700 |ddv_scf|^2 =  1.473E-15

     End of self-consistent calculation

     Convergence has been achieved 


     Representation #   2 modes #   4   5   6

     Self-consistent Calculation

      iter #   1 total cpu time :  1344.3 secs   av.it.:   5.4
      thresh= 1.000E-02 alpha_mix =  0.700 |ddv_scf|^2 =  1.356E-08

      iter #   2 total cpu time :  1453.9 secs   av.it.:  11.2
      thresh= 1.164E-05 alpha_mix =  0.700 |ddv_scf|^2 =  1.072E-09

      iter #   3 total cpu time :  1561.8 secs   av.it.:  11.0
      thresh= 3.274E-06 alpha_mix =  0.700 |ddv_scf|^2 =  7.167E-11

      iter #   4 total cpu time :  1669.7 secs   av.it.:  10.9
      thresh= 8.466E-07 alpha_mix =  0.700 |ddv_scf|^2 =  4.155E-12

      iter #   5 total cpu time :  1769.0 secs   av.it.:   9.9
      thresh= 2.038E-07 alpha_mix =  0.700 |ddv_scf|^2 =  7.404E-16

     End of self-consistent calculation

     Convergence has been achieved 
 
     Number of q in the star =    1
     List of q in the star:
          1   0.000000000   0.000000000   0.000000000

          Dielectric constant in cartesian axis 

          (      12.970938302      -0.000000000      -0.000000000 )
          (      -0.000000000      12.970938302       0.000000000 )
          (       0.000000000       0.000000000      12.970938302 )

          Effective charges (d Force / dE) in cartesian axis without acoustic sum rule applied (asr)

           atom      1   Si Mean Z*:        0.00002
      Ex  (        0.00002        0.00000        0.00000 )
      Ey  (        0.00000        0.00002       -0.00000 )
      Ez  (        0.00000       -0.00000        0.00002 )
           atom      2   Si Mean Z*:        0.00002
      Ex  (        0.00002       -0.00000       -0.00000 )
      Ey  (       -0.00000        0.00002        0.00000 )
      Ez  (       -0.00000        0.00000        0.00002 )

          Effective charges Sum: Mean:        0.00004
              0.00004        0.00000       -0.00000
              0.00000        0.00004       -0.00000
             -0.00000        0.00000        0.00004

          Effective charges (d Force / dE) in cartesian axis with asr applied: 
           atom      1   Si Mean Z*:        0.00000
      E*x (        0.00000        0.00000        0.00000 )
      E*y (        0.00000        0.00000       -0.00000 )
      E*z (        0.00000       -0.00000        0.00000 )
           atom      2   Si Mean Z*:       -0.00000
      E*x (       -0.00000       -0.00000       -0.00000 )
      E*y (       -0.00000       -0.00000        0.00000 )
      E*z (       -0.00000        0.00000       -0.00000 )

          Effective charges (d P / du) in cartesian axis 

           atom      1   Si 
      Px  (       -0.00028        0.00000       -0.00000 )
      Py  (        0.00000       -0.00028       -0.00000 )
      Pz  (        0.00000        0.00000       -0.00028 )
           atom      2   Si 
      Px  (       -0.00028       -0.00000       -0.00000 )
      Py  (       -0.00000       -0.00028       -0.00000 )
      Pz  (       -0.00000       -0.00000       -0.00028 )

     Diagonalizing the dynamical matrix

     q = (    0.000000000   0.000000000   0.000000000 ) 

 **************************************************************************
     freq (    1) =       0.101962 [THz] =       3.401097 [cm-1]
     freq (    2) =       0.101962 [THz] =       3.401097 [cm-1]
     freq (    3) =       0.101962 [THz] =       3.401097 [cm-1]
     freq (    4) =      15.089772 [THz] =     503.340616 [cm-1]
     freq (    5) =      15.089772 [THz] =     503.340616 [cm-1]
     freq (    6) =      15.089772 [THz] =     503.340616 [cm-1]
 **************************************************************************

     Mode symmetry, O_h (m-3m)  point group:

     freq (   1-   3) =          3.4  [cm-1]   --> T_1u G_15  G_4- I  
     freq (   4-   6) =        503.3  [cm-1]   --> T_2g G_25' G_5+ R  

     Calculation of q =   -0.2500000   0.2500000  -0.2500000
 
     G-vector sticks info
     --------------------
     sticks:   dense  smooth     PW     G-vecs:    dense   smooth      PW
     Sum        1165    1165    379                26565    26565    4909
 
     Using Slab Decomposition
 

     Title: 
     phonons of Si in Diamond structure                                         


     bravais-lattice index     =            2
     lattice parameter (alat)  =      10.3352  a.u.
     unit-cell volume          =     275.9921 (a.u.)^3
     number of atoms/cell      =            2
     number of atomic types    =            1
     number of electrons       =         8.00
     number of Kohn-Sham states=            4
     kinetic-energy cutoff     =      80.0000  Ry
     charge density cutoff     =     320.0000  Ry
     Exchange-correlation= PBE
                           (   1   4   3   4   0   0   0)

     celldm(1)=  10.335200  celldm(2)=   0.000000  celldm(3)=   0.000000
     celldm(4)=   0.000000  celldm(5)=   0.000000  celldm(6)=   0.000000

     crystal axes: (cart. coord. in units of alat)
               a(1) = (  -0.500000   0.000000   0.500000 )  
               a(2) = (   0.000000   0.500000   0.500000 )  
               a(3) = (  -0.500000   0.500000   0.000000 )  

     reciprocal axes: (cart. coord. in units 2 pi/alat)
               b(1) = ( -1.000000 -1.000000  1.000000 )  
               b(2) = (  1.000000  1.000000  1.000000 )  
               b(3) = ( -1.000000  1.000000 -1.000000 )  


     PseudoPot. # 1 for Si read from file:
     ../pseudo/Si.pbe-n-kjpaw_psl.1.0.0.UPF
     MD5 check sum: c39c59da582df4a0d9f10159256ea34e
     Pseudo is Projector augmented-wave + core cor, Zval =  4.0
     Generated using &quot;atomic&quot; code by A. Dal Corso  v.6.3
     Shape of augmentation charge: PSQ
     Using radial grid of 1141 points,  6 beta functions with: 
                l(1) =   0
                l(2) =   0
                l(3) =   1
                l(4) =   1
                l(5) =   2
                l(6) =   2
     Q(r) pseudized with 0 coefficients 


     atomic species   valence    mass     pseudopotential
        Si             4.00    28.08500     Si( 1.00)

     48 Sym. Ops., with inversion, found



   Cartesian axes

     site n.     atom                  positions (alat units)
         1           Si  tau(   1) = (   0.0000000   0.0000000   0.0000000  )
         2           Si  tau(   2) = (  -0.2500000   0.2500000   0.2500000  )

     number of k points=  5984

     Number of k-points >= 100: set verbosity='high' to print them.

     Dense  grid:    26565 G-vectors     FFT dimensions: (  48,  48,  48)

     Estimated max dynamical RAM per process >       1.28 GB

     The potential is recalculated from file :
     ./_ph0/pwscf.save/charge-density

     Starting wfcs are    8 atomic wfcs

     Band Structure Calculation
     Davidson diagonalization with overlap

     ethr =  1.25E-10,  avg # of iterations = 13.5

     total cpu time spent up to now is      594.0 secs

     End of band structure calculation

     Number of k-points >= 100: set verbosity='high' to print the bands.

     highest occupied level (ev):     5.9606

     phonons of Si in Diamond structure                                         

     bravais-lattice index     =            2
     lattice parameter (alat)  =      10.3352  a.u.
     unit-cell volume          =     275.9921 (a.u.)^3
     number of atoms/cell      =            2
     number of atomic types    =            1
     kinetic-energy cut-off    =      80.0000  Ry
     charge density cut-off    =     320.0000  Ry
     convergence threshold     =      1.0E-14
     beta                      =       0.7000
     number of iterations used =            4
     Exchange-correlation= PBE
                           (   1   4   3   4   0   0   0)


     celldm(1)=   10.33520  celldm(2)=    0.00000  celldm(3)=    0.00000
     celldm(4)=    0.00000  celldm(5)=    0.00000  celldm(6)=    0.00000

     crystal axes: (cart. coord. in units of alat)
               a(1) = ( -0.5000  0.0000  0.5000 )  
               a(2) = (  0.0000  0.5000  0.5000 )  
               a(3) = ( -0.5000  0.5000  0.0000 )  

     reciprocal axes: (cart. coord. in units 2 pi/alat)
               b(1) = ( -1.0000 -1.0000  1.0000 )  
               b(2) = (  1.0000  1.0000  1.0000 )  
               b(3) = ( -1.0000  1.0000 -1.0000 )  


     Atoms inside the unit cell: 

     Cartesian axes

     site n.  atom      mass           positions (alat units)
        1     Si  28.0850   tau(    1) = (    0.00000    0.00000    0.00000  )
        2     Si  28.0850   tau(    2) = (   -0.25000    0.25000    0.25000  )

     Computing dynamical matrix for 
                    q = (  -0.2500000   0.2500000  -0.2500000 )
 
      6 Sym.Ops. (no q -> -q+G )


     G cutoff =  865.8208  (  26565 G-vectors)     FFT grid: ( 48, 48, 48)
     number of k points=  5984

     PseudoPot. # 1 for Si read from file:
     ../pseudo/Si.pbe-n-kjpaw_psl.1.0.0.UPF
     MD5 check sum: c39c59da582df4a0d9f10159256ea34e
     Pseudo is Projector augmented-wave + core cor, Zval =  4.0
     Generated using &quot;atomic&quot; code by A. Dal Corso  v.6.3
     Shape of augmentation charge: PSQ
     Using radial grid of 1141 points,  6 beta functions with: 
                l(1) =   0
                l(2) =   0
                l(3) =   1
                l(4) =   1
                l(5) =   2
                l(6) =   2
     Q(r) pseudized with 0 coefficients 


     Mode symmetry, C_3v (3m)   point group:


     Atomic displacements:
     There are    4 irreducible representations

     Representation     1      1 modes -  To be done

     Representation     2      1 modes -  To be done

     Representation     3      2 modes -  To be done

     Representation     4      2 modes -  To be done



     Alpha used in Ewald sum =   2.8000
     PHONON       :  40m48.23s CPU  41m10.32s WALL



     Representation #   1 mode #   1

     Self-consistent Calculation

      iter #   1 total cpu time :  2645.8 secs   av.it.:   6.3
      thresh= 1.000E-02 alpha_mix =  0.700 |ddv_scf|^2 =  1.792E-04

      iter #   2 total cpu time :  2875.5 secs   av.it.:   9.3
      thresh= 1.339E-03 alpha_mix =  0.700 |ddv_scf|^2 =  2.751E-03

      iter #   3 total cpu time :  3073.2 secs   av.it.:   7.7
      thresh= 5.245E-03 alpha_mix =  0.700 |ddv_scf|^2 =  1.057E-07

      iter #   4 total cpu time :  3312.4 secs   av.it.:   9.9
      thresh= 3.252E-05 alpha_mix =  0.700 |ddv_scf|^2 =  8.186E-09

      iter #   5 total cpu time :  3552.3 secs   av.it.:   9.9
      thresh= 9.048E-06 alpha_mix =  0.700 |ddv_scf|^2 =  3.916E-10

      iter #   6 total cpu time :  3788.4 secs   av.it.:   9.7
      thresh= 1.979E-06 alpha_mix =  0.700 |ddv_scf|^2 =  5.492E-11

      iter #   7 total cpu time :  4018.8 secs   av.it.:   9.4
      thresh= 7.411E-07 alpha_mix =  0.700 |ddv_scf|^2 =  1.790E-10

      iter #   8 total cpu time :  4228.9 secs   av.it.:   8.3
      thresh= 1.338E-06 alpha_mix =  0.700 |ddv_scf|^2 =  5.284E-12

      iter #   9 total cpu time :  4451.4 secs   av.it.:   9.0
      thresh= 2.299E-07 alpha_mix =  0.700 |ddv_scf|^2 =  9.839E-13

      iter #  10 total cpu time :  4670.6 secs   av.it.:   8.9
      thresh= 9.919E-08 alpha_mix =  0.700 |ddv_scf|^2 =  2.878E-14

      iter #  11 total cpu time :  4903.5 secs   av.it.:   9.6
      thresh= 1.696E-08 alpha_mix =  0.700 |ddv_scf|^2 =  1.562E-15

     End of self-consistent calculation

     Convergence has been achieved 


     Representation #   2 mode #   2

     Self-consistent Calculation

      iter #   1 total cpu time :  5081.7 secs   av.it.:   6.3
      thresh= 1.000E-02 alpha_mix =  0.700 |ddv_scf|^2 =  1.792E-04

      iter #   2 total cpu time :  5311.2 secs   av.it.:   9.3
      thresh= 1.339E-03 alpha_mix =  0.700 |ddv_scf|^2 =  2.751E-03

      iter #   3 total cpu time :  5508.9 secs   av.it.:   7.7
      thresh= 5.245E-03 alpha_mix =  0.700 |ddv_scf|^2 =  1.057E-07

      iter #   4 total cpu time :  5747.8 secs   av.it.:   9.9
      thresh= 3.252E-05 alpha_mix =  0.700 |ddv_scf|^2 =  8.186E-09

      iter #   5 total cpu time :  5987.7 secs   av.it.:   9.9
      thresh= 9.048E-06 alpha_mix =  0.700 |ddv_scf|^2 =  3.916E-10

      iter #   6 total cpu time :  6223.8 secs   av.it.:   9.7
      thresh= 1.979E-06 alpha_mix =  0.700 |ddv_scf|^2 =  5.497E-11

      iter #   7 total cpu time :  6454.1 secs   av.it.:   9.4
      thresh= 7.414E-07 alpha_mix =  0.700 |ddv_scf|^2 =  1.790E-10

      iter #   8 total cpu time :  6664.1 secs   av.it.:   8.3
      thresh= 1.338E-06 alpha_mix =  0.700 |ddv_scf|^2 =  5.282E-12

      iter #   9 total cpu time :  6886.5 secs   av.it.:   9.0
      thresh= 2.298E-07 alpha_mix =  0.700 |ddv_scf|^2 =  9.840E-13

      iter #  10 total cpu time :  7105.8 secs   av.it.:   8.9
      thresh= 9.920E-08 alpha_mix =  0.700 |ddv_scf|^2 =  2.878E-14

      iter #  11 total cpu time :  7338.7 secs   av.it.:   9.6
      thresh= 1.696E-08 alpha_mix =  0.700 |ddv_scf|^2 =  1.562E-15

     End of self-consistent calculation

     Convergence has been achieved 


     Representation #   3 modes #   3   4

     Self-consistent Calculation

      iter #   1 total cpu time :  7661.8 secs   av.it.:   5.6
      thresh= 1.000E-02 alpha_mix =  0.700 |ddv_scf|^2 =  3.931E-08

      iter #   2 total cpu time :  8187.4 secs   av.it.:  11.2
      thresh= 1.983E-05 alpha_mix =  0.700 |ddv_scf|^2 =  3.090E-09

      iter #   3 total cpu time :  8706.5 secs   av.it.:  11.0
      thresh= 5.559E-06 alpha_mix =  0.700 |ddv_scf|^2 =  2.714E-10

      iter #   4 total cpu time :  9217.9 secs   av.it.:  10.8
      thresh= 1.647E-06 alpha_mix =  0.700 |ddv_scf|^2 =  1.131E-11

      iter #   5 total cpu time :  9699.2 secs   av.it.:  10.0
      thresh= 3.363E-07 alpha_mix =  0.700 |ddv_scf|^2 =  4.014E-14

      iter #   6 total cpu time : 10216.8 secs   av.it.:  11.0
      thresh= 2.004E-08 alpha_mix =  0.700 |ddv_scf|^2 =  2.903E-16

     End of self-consistent calculation

     Convergence has been achieved 


     Representation #   4 modes #   5   6

     Self-consistent Calculation

      iter #   1 total cpu time : 10542.1 secs   av.it.:   5.6
      thresh= 1.000E-02 alpha_mix =  0.700 |ddv_scf|^2 =  3.930E-08

      iter #   2 total cpu time : 11066.0 secs   av.it.:  11.1
      thresh= 1.983E-05 alpha_mix =  0.700 |ddv_scf|^2 =  3.089E-09

      iter #   3 total cpu time : 11583.5 secs   av.it.:  11.0
      thresh= 5.558E-06 alpha_mix =  0.700 |ddv_scf|^2 =  2.713E-10

      iter #   4 total cpu time : 12093.6 secs   av.it.:  10.8
      thresh= 1.647E-06 alpha_mix =  0.700 |ddv_scf|^2 =  1.131E-11

      iter #   5 total cpu time : 12573.7 secs   av.it.:  10.0
      thresh= 3.363E-07 alpha_mix =  0.700 |ddv_scf|^2 =  4.046E-14

      iter #   6 total cpu time : 13090.6 secs   av.it.:  11.0
      thresh= 2.012E-08 alpha_mix =  0.700 |ddv_scf|^2 =  2.916E-16

     End of self-consistent calculation

     Convergence has been achieved 
 
     Number of q in the star =    8
     List of q in the star:
          1  -0.250000000   0.250000000  -0.250000000
          2   0.250000000  -0.250000000  -0.250000000
          3   0.250000000  -0.250000000   0.250000000
          4   0.250000000   0.250000000   0.250000000
          5  -0.250000000  -0.250000000  -0.250000000
          6  -0.250000000  -0.250000000   0.250000000
          7  -0.250000000   0.250000000   0.250000000
          8   0.250000000   0.250000000  -0.250000000

     Diagonalizing the dynamical matrix

     q = (   -0.250000000   0.250000000  -0.250000000 ) 

 **************************************************************************
     freq (    1) =       2.848270 [THz] =      95.008069 [cm-1]
     freq (    2) =       2.848270 [THz] =      95.008069 [cm-1]
     freq (    3) =       6.755087 [THz] =     225.325445 [cm-1]
     freq (    4) =      14.222129 [THz] =     474.399157 [cm-1]
     freq (    5) =      14.515421 [THz] =     484.182326 [cm-1]
     freq (    6) =      14.515421 [THz] =     484.182326 [cm-1]
 **************************************************************************

     Mode symmetry, C_3v (3m)   point group:

     freq (   1-   2) =         95.0  [cm-1]   --> E    L_3           
     freq (   3-   3) =        225.3  [cm-1]   --> A_1  L_1           
     freq (   4-   4) =        474.4  [cm-1]   --> A_1  L_1           
     freq (   5-   6) =        484.2  [cm-1]   --> E    L_3           

     Calculation of q =    0.5000000  -0.5000000   0.5000000
 
     G-vector sticks info
     --------------------
     sticks:   dense  smooth     PW     G-vecs:    dense   smooth      PW
     Sum        1165    1165    397                26565    26565    5161
 
     Using Slab Decomposition
 

     Title: 
     phonons of Si in Diamond structure                                         


     bravais-lattice index     =            2
     lattice parameter (alat)  =      10.3352  a.u.
     unit-cell volume          =     275.9921 (a.u.)^3
     number of atoms/cell      =            2
     number of atomic types    =            1
     number of electrons       =         8.00
     number of Kohn-Sham states=            4
     kinetic-energy cutoff     =      80.0000  Ry
     charge density cutoff     =     320.0000  Ry
     Exchange-correlation= PBE
                           (   1   4   3   4   0   0   0)

     celldm(1)=  10.335200  celldm(2)=   0.000000  celldm(3)=   0.000000
     celldm(4)=   0.000000  celldm(5)=   0.000000  celldm(6)=   0.000000

     crystal axes: (cart. coord. in units of alat)
               a(1) = (  -0.500000   0.000000   0.500000 )  
               a(2) = (   0.000000   0.500000   0.500000 )  
               a(3) = (  -0.500000   0.500000   0.000000 )  

     reciprocal axes: (cart. coord. in units 2 pi/alat)
               b(1) = ( -1.000000 -1.000000  1.000000 )  
               b(2) = (  1.000000  1.000000  1.000000 )  
               b(3) = ( -1.000000  1.000000 -1.000000 )  


     PseudoPot. # 1 for Si read from file:
     ../pseudo/Si.pbe-n-kjpaw_psl.1.0.0.UPF
     MD5 check sum: c39c59da582df4a0d9f10159256ea34e
     Pseudo is Projector augmented-wave + core cor, Zval =  4.0
     Generated using &quot;atomic&quot; code by A. Dal Corso  v.6.3
     Shape of augmentation charge: PSQ
     Using radial grid of 1141 points,  6 beta functions with: 
                l(1) =   0
                l(2) =   0
                l(3) =   1
                l(4) =   1
                l(5) =   2
                l(6) =   2
     Q(r) pseudized with 0 coefficients 


     atomic species   valence    mass     pseudopotential
        Si             4.00    28.08500     Si( 1.00)

     48 Sym. Ops., with inversion, found



   Cartesian axes

     site n.     atom                  positions (alat units)
         1           Si  tau(   1) = (   0.0000000   0.0000000   0.0000000  )
         2           Si  tau(   2) = (  -0.2500000   0.2500000   0.2500000  )

     number of k points=  2992

     Number of k-points >= 100: set verbosity='high' to print them.

     Dense  grid:    26565 G-vectors     FFT dimensions: (  48,  48,  48)

     Estimated max dynamical RAM per process >     699.65 MB

     The potential is recalculated from file :
     ./_ph0/pwscf.save/charge-density

     Starting wfcs are    8 atomic wfcs

     Band Structure Calculation
     Davidson diagonalization with overlap

     ethr =  1.25E-10,  avg # of iterations = 13.5

     total cpu time spent up to now is      891.2 secs

     End of band structure calculation

     Number of k-points >= 100: set verbosity='high' to print the bands.

     highest occupied level (ev):     5.9606

     phonons of Si in Diamond structure                                         

     bravais-lattice index     =            2
     lattice parameter (alat)  =      10.3352  a.u.
     unit-cell volume          =     275.9921 (a.u.)^3
     number of atoms/cell      =            2
     number of atomic types    =            1
     kinetic-energy cut-off    =      80.0000  Ry
     charge density cut-off    =     320.0000  Ry
     convergence threshold     =      1.0E-14
     beta                      =       0.7000
     number of iterations used =            4
     Exchange-correlation= PBE
                           (   1   4   3   4   0   0   0)


     celldm(1)=   10.33520  celldm(2)=    0.00000  celldm(3)=    0.00000
     celldm(4)=    0.00000  celldm(5)=    0.00000  celldm(6)=    0.00000

     crystal axes: (cart. coord. in units of alat)
               a(1) = ( -0.5000  0.0000  0.5000 )  
               a(2) = (  0.0000  0.5000  0.5000 )  
               a(3) = ( -0.5000  0.5000  0.0000 )  

     reciprocal axes: (cart. coord. in units 2 pi/alat)
               b(1) = ( -1.0000 -1.0000  1.0000 )  
               b(2) = (  1.0000  1.0000  1.0000 )  
               b(3) = ( -1.0000  1.0000 -1.0000 )  


     Atoms inside the unit cell: 

     Cartesian axes

     site n.  atom      mass           positions (alat units)
        1     Si  28.0850   tau(    1) = (    0.00000    0.00000    0.00000  )
        2     Si  28.0850   tau(    2) = (   -0.25000    0.25000    0.25000  )

     Computing dynamical matrix for 
                    q = (   0.5000000  -0.5000000   0.5000000 )
 
     13 Sym.Ops. (with q -> -q+G )


     G cutoff =  865.8208  (  26565 G-vectors)     FFT grid: ( 48, 48, 48)
     number of k points=  2992

     PseudoPot. # 1 for Si read from file:
     ../pseudo/Si.pbe-n-kjpaw_psl.1.0.0.UPF
     MD5 check sum: c39c59da582df4a0d9f10159256ea34e
     Pseudo is Projector augmented-wave + core cor, Zval =  4.0
     Generated using &quot;atomic&quot; code by A. Dal Corso  v.6.3
     Shape of augmentation charge: PSQ
     Using radial grid of 1141 points,  6 beta functions with: 
                l(1) =   0
                l(2) =   0
                l(3) =   1
                l(4) =   1
                l(5) =   2
                l(6) =   2
     Q(r) pseudized with 0 coefficients 



     Atomic displacements:
     There are    4 irreducible representations

     Representation     1      1 modes -  To be done

     Representation     2      1 modes -  To be done

     Representation     3      2 modes -  To be done

     Representation     4      2 modes -  To be done



     Alpha used in Ewald sum =   2.8000
     PHONON       :      3h42m CPU      3h43m WALL



     Representation #   1 mode #   1

     Self-consistent Calculation

      iter #   1 total cpu time : 13515.8 secs   av.it.:   5.3
      thresh= 1.000E-02 alpha_mix =  0.700 |ddv_scf|^2 =  1.812E-06

      iter #   2 total cpu time : 13637.8 secs   av.it.:  10.1
      thresh= 1.346E-04 alpha_mix =  0.700 |ddv_scf|^2 =  1.640E-06

      iter #   3 total cpu time : 13753.3 secs   av.it.:   9.4
      thresh= 1.281E-04 alpha_mix =  0.700 |ddv_scf|^2 =  3.063E-09

      iter #   4 total cpu time : 13868.5 secs   av.it.:   9.4
      thresh= 5.534E-06 alpha_mix =  0.700 |ddv_scf|^2 =  9.346E-11

      iter #   5 total cpu time : 13975.8 secs   av.it.:   8.6
      thresh= 9.667E-07 alpha_mix =  0.700 |ddv_scf|^2 =  4.131E-13

      iter #   6 total cpu time : 14091.3 secs   av.it.:   9.5
      thresh= 6.427E-08 alpha_mix =  0.700 |ddv_scf|^2 =  7.160E-15

     End of self-consistent calculation

     Convergence has been achieved 


     Representation #   2 mode #   2

     Self-consistent Calculation

      iter #   1 total cpu time : 14182.6 secs   av.it.:   6.4
      thresh= 1.000E-02 alpha_mix =  0.700 |ddv_scf|^2 =  2.474E-05

      iter #   2 total cpu time : 14305.3 secs   av.it.:  10.1
      thresh= 4.974E-04 alpha_mix =  0.700 |ddv_scf|^2 =  7.736E-05

      iter #   3 total cpu time : 14418.4 secs   av.it.:   9.1
      thresh= 8.795E-04 alpha_mix =  0.700 |ddv_scf|^2 =  1.008E-08

      iter #   4 total cpu time : 14538.7 secs   av.it.:  10.0
      thresh= 1.004E-05 alpha_mix =  0.700 |ddv_scf|^2 =  8.121E-10

      iter #   5 total cpu time : 14661.5 secs   av.it.:  10.2
      thresh= 2.850E-06 alpha_mix =  0.700 |ddv_scf|^2 =  4.425E-11

      iter #   6 total cpu time : 14780.2 secs   av.it.:   9.8
      thresh= 6.652E-07 alpha_mix =  0.700 |ddv_scf|^2 =  8.874E-13

      iter #   7 total cpu time : 14894.8 secs   av.it.:   9.3
      thresh= 9.420E-08 alpha_mix =  0.700 |ddv_scf|^2 =  1.911E-15

     End of self-consistent calculation

     Convergence has been achieved 


     Representation #   3 modes #   3   4

     Self-consistent Calculation

      iter #   1 total cpu time : 15059.2 secs   av.it.:   5.6
      thresh= 1.000E-02 alpha_mix =  0.700 |ddv_scf|^2 =  6.592E-08

      iter #   2 total cpu time : 15321.5 secs   av.it.:  11.1
      thresh= 2.568E-05 alpha_mix =  0.700 |ddv_scf|^2 =  5.851E-09

      iter #   3 total cpu time : 15580.3 secs   av.it.:  10.9
      thresh= 7.649E-06 alpha_mix =  0.700 |ddv_scf|^2 =  3.810E-10

      iter #   4 total cpu time : 15828.9 secs   av.it.:  10.4
      thresh= 1.952E-06 alpha_mix =  0.700 |ddv_scf|^2 =  1.246E-11

      iter #   5 total cpu time : 16057.8 secs   av.it.:   9.4
      thresh= 3.529E-07 alpha_mix =  0.700 |ddv_scf|^2 =  2.510E-15

     End of self-consistent calculation

     Convergence has been achieved 


     Representation #   4 modes #   5   6

     Self-consistent Calculation

      iter #   1 total cpu time : 16215.9 secs   av.it.:   5.3
      thresh= 1.000E-02 alpha_mix =  0.700 |ddv_scf|^2 =  2.550E-08

      iter #   2 total cpu time : 16470.0 secs   av.it.:  10.7
      thresh= 1.597E-05 alpha_mix =  0.700 |ddv_scf|^2 =  2.004E-09

      iter #   3 total cpu time : 16718.9 secs   av.it.:  10.4
      thresh= 4.477E-06 alpha_mix =  0.700 |ddv_scf|^2 =  8.302E-11

      iter #   4 total cpu time : 16962.0 secs   av.it.:  10.1
      thresh= 9.112E-07 alpha_mix =  0.700 |ddv_scf|^2 =  4.312E-12

      iter #   5 total cpu time : 17198.6 secs   av.it.:   9.8
      thresh= 2.076E-07 alpha_mix =  0.700 |ddv_scf|^2 =  3.929E-15

     End of self-consistent calculation

     Convergence has been achieved 
 
     Number of q in the star =    4
     List of q in the star:
          1   0.500000000  -0.500000000   0.500000000
          2   0.500000000   0.500000000   0.500000000
          3  -0.500000000   0.500000000   0.500000000
          4   0.500000000   0.500000000  -0.500000000

     Diagonalizing the dynamical matrix

     q = (    0.500000000  -0.500000000   0.500000000 ) 

 **************************************************************************
     freq (    1) =       3.345779 [THz] =     111.603175 [cm-1]
     freq (    2) =       3.345779 [THz] =     111.603175 [cm-1]
     freq (    3) =      11.105523 [THz] =     370.440388 [cm-1]
     freq (    4) =      11.984941 [THz] =     399.774595 [cm-1]
     freq (    5) =      14.311194 [THz] =     477.370041 [cm-1]
     freq (    6) =      14.311194 [THz] =     477.370041 [cm-1]
 **************************************************************************

     Calculation of q =    0.0000000   0.5000000   0.0000000
 
     G-vector sticks info
     --------------------
     sticks:   dense  smooth     PW     G-vecs:    dense   smooth      PW
     Sum        1165    1165    379                26565    26565    4909
 
     Using Slab Decomposition
 

     Title: 
     phonons of Si in Diamond structure                                         


     bravais-lattice index     =            2
     lattice parameter (alat)  =      10.3352  a.u.
     unit-cell volume          =     275.9921 (a.u.)^3
     number of atoms/cell      =            2
     number of atomic types    =            1
     number of electrons       =         8.00
     number of Kohn-Sham states=            4
     kinetic-energy cutoff     =      80.0000  Ry
     charge density cutoff     =     320.0000  Ry
     Exchange-correlation= PBE
                           (   1   4   3   4   0   0   0)

     celldm(1)=  10.335200  celldm(2)=   0.000000  celldm(3)=   0.000000
     celldm(4)=   0.000000  celldm(5)=   0.000000  celldm(6)=   0.000000

     crystal axes: (cart. coord. in units of alat)
               a(1) = (  -0.500000   0.000000   0.500000 )  
               a(2) = (   0.000000   0.500000   0.500000 )  
               a(3) = (  -0.500000   0.500000   0.000000 )  

     reciprocal axes: (cart. coord. in units 2 pi/alat)
               b(1) = ( -1.000000 -1.000000  1.000000 )  
               b(2) = (  1.000000  1.000000  1.000000 )  
               b(3) = ( -1.000000  1.000000 -1.000000 )  


     PseudoPot. # 1 for Si read from file:
     ../pseudo/Si.pbe-n-kjpaw_psl.1.0.0.UPF
     MD5 check sum: c39c59da582df4a0d9f10159256ea34e
     Pseudo is Projector augmented-wave + core cor, Zval =  4.0
     Generated using &quot;atomic&quot; code by A. Dal Corso  v.6.3
     Shape of augmentation charge: PSQ
     Using radial grid of 1141 points,  6 beta functions with: 
                l(1) =   0
                l(2) =   0
                l(3) =   1
                l(4) =   1
                l(5) =   2
                l(6) =   2
     Q(r) pseudized with 0 coefficients 


     atomic species   valence    mass     pseudopotential
        Si             4.00    28.08500     Si( 1.00)

     48 Sym. Ops., with inversion, found



   Cartesian axes

     site n.     atom                  positions (alat units)
         1           Si  tau(   1) = (   0.0000000   0.0000000   0.0000000  )
         2           Si  tau(   2) = (  -0.2500000   0.2500000   0.2500000  )

     number of k points=  4352

     Number of k-points >= 100: set verbosity='high' to print them.

     Dense  grid:    26565 G-vectors     FFT dimensions: (  48,  48,  48)

     Estimated max dynamical RAM per process >     976.47 MB

     The potential is recalculated from file :
     ./_ph0/pwscf.save/charge-density

     Starting wfcs are    8 atomic wfcs

     Band Structure Calculation
     Davidson diagonalization with overlap

     ethr =  1.25E-10,  avg # of iterations = 13.5

     total cpu time spent up to now is     1323.2 secs

     End of band structure calculation

     Number of k-points >= 100: set verbosity='high' to print the bands.

     highest occupied level (ev):     5.9606

     phonons of Si in Diamond structure                                         

     bravais-lattice index     =            2
     lattice parameter (alat)  =      10.3352  a.u.
     unit-cell volume          =     275.9921 (a.u.)^3
     number of atoms/cell      =            2
     number of atomic types    =            1
     kinetic-energy cut-off    =      80.0000  Ry
     charge density cut-off    =     320.0000  Ry
     convergence threshold     =      1.0E-14
     beta                      =       0.7000
     number of iterations used =            4
     Exchange-correlation= PBE
                           (   1   4   3   4   0   0   0)


     celldm(1)=   10.33520  celldm(2)=    0.00000  celldm(3)=    0.00000
     celldm(4)=    0.00000  celldm(5)=    0.00000  celldm(6)=    0.00000

     crystal axes: (cart. coord. in units of alat)
               a(1) = ( -0.5000  0.0000  0.5000 )  
               a(2) = (  0.0000  0.5000  0.5000 )  
               a(3) = ( -0.5000  0.5000  0.0000 )  

     reciprocal axes: (cart. coord. in units 2 pi/alat)
               b(1) = ( -1.0000 -1.0000  1.0000 )  
               b(2) = (  1.0000  1.0000  1.0000 )  
               b(3) = ( -1.0000  1.0000 -1.0000 )  


     Atoms inside the unit cell: 

     Cartesian axes

     site n.  atom      mass           positions (alat units)
        1     Si  28.0850   tau(    1) = (    0.00000    0.00000    0.00000  )
        2     Si  28.0850   tau(    2) = (   -0.25000    0.25000    0.25000  )

     Computing dynamical matrix for 
                    q = (   0.0000000   0.5000000   0.0000000 )
 
      8 Sym.Ops. (no q -> -q+G )


     G cutoff =  865.8208  (  26565 G-vectors)     FFT grid: ( 48, 48, 48)
     number of k points=  4352

     PseudoPot. # 1 for Si read from file:
     ../pseudo/Si.pbe-n-kjpaw_psl.1.0.0.UPF
     MD5 check sum: c39c59da582df4a0d9f10159256ea34e
     Pseudo is Projector augmented-wave + core cor, Zval =  4.0
     Generated using &quot;atomic&quot; code by A. Dal Corso  v.6.3
     Shape of augmentation charge: PSQ
     Using radial grid of 1141 points,  6 beta functions with: 
                l(1) =   0
                l(2) =   0
                l(3) =   1
                l(4) =   1
                l(5) =   2
                l(6) =   2
     Q(r) pseudized with 0 coefficients 


     Mode symmetry, C_4v (4mm)  point group:


     Atomic displacements:
     There are    4 irreducible representations

     Representation     1      1 modes -  To be done

     Representation     2      1 modes -  To be done

     Representation     3      2 modes -  To be done

     Representation     4      2 modes -  To be done



     Alpha used in Ewald sum =   2.8000
     PHONON       :      4h53m CPU      4h54m WALL



     Representation #   1 mode #   1

     Self-consistent Calculation

      iter #   1 total cpu time : 17824.9 secs   av.it.:   6.4
      thresh= 1.000E-02 alpha_mix =  0.700 |ddv_scf|^2 =  2.157E-04

      iter #   2 total cpu time : 17994.3 secs   av.it.:   9.5
      thresh= 1.469E-03 alpha_mix =  0.700 |ddv_scf|^2 =  2.888E-03

      iter #   3 total cpu time : 18141.7 secs   av.it.:   7.9
      thresh= 5.374E-03 alpha_mix =  0.700 |ddv_scf|^2 =  7.021E-09

      iter #   4 total cpu time : 18313.9 secs   av.it.:   9.8
      thresh= 8.379E-06 alpha_mix =  0.700 |ddv_scf|^2 =  1.182E-09

      iter #   5 total cpu time : 18481.4 secs   av.it.:   9.5
      thresh= 3.439E-06 alpha_mix =  0.700 |ddv_scf|^2 =  5.261E-11

      iter #   6 total cpu time : 18654.4 secs   av.it.:   9.8
      thresh= 7.253E-07 alpha_mix =  0.700 |ddv_scf|^2 =  1.611E-12

      iter #   7 total cpu time : 18817.1 secs   av.it.:   9.1
      thresh= 1.269E-07 alpha_mix =  0.700 |ddv_scf|^2 =  2.050E-14

      iter #   8 total cpu time : 18977.0 secs   av.it.:   8.9
      thresh= 1.432E-08 alpha_mix =  0.700 |ddv_scf|^2 =  2.910E-16

     End of self-consistent calculation

     Convergence has been achieved 


     Representation #   2 mode #   2

     Self-consistent Calculation

      iter #   1 total cpu time : 19093.1 secs   av.it.:   5.4
      thresh= 1.000E-02 alpha_mix =  0.700 |ddv_scf|^2 =  3.797E-07

      iter #   2 total cpu time : 19273.9 secs   av.it.:  10.4
      thresh= 6.162E-05 alpha_mix =  0.700 |ddv_scf|^2 =  9.860E-08

      iter #   3 total cpu time : 19451.4 secs   av.it.:  10.2
      thresh= 3.140E-05 alpha_mix =  0.700 |ddv_scf|^2 =  3.148E-09

      iter #   4 total cpu time : 19625.7 secs   av.it.:   9.9
      thresh= 5.611E-06 alpha_mix =  0.700 |ddv_scf|^2 =  1.368E-10

      iter #   5 total cpu time : 19799.9 secs   av.it.:   9.9
      thresh= 1.170E-06 alpha_mix =  0.700 |ddv_scf|^2 =  7.283E-12

      iter #   6 total cpu time : 19963.3 secs   av.it.:   9.1
      thresh= 2.699E-07 alpha_mix =  0.700 |ddv_scf|^2 =  4.793E-15

     End of self-consistent calculation

     Convergence has been achieved 


     Representation #   3 modes #   3   4

     Self-consistent Calculation

      iter #   1 total cpu time : 20199.8 secs   av.it.:   5.6
      thresh= 1.000E-02 alpha_mix =  0.700 |ddv_scf|^2 =  5.841E-08

      iter #   2 total cpu time : 20583.3 secs   av.it.:  11.2
      thresh= 2.417E-05 alpha_mix =  0.700 |ddv_scf|^2 =  7.338E-09

      iter #   3 total cpu time : 20960.9 secs   av.it.:  11.0
      thresh= 8.566E-06 alpha_mix =  0.700 |ddv_scf|^2 =  4.641E-10

      iter #   4 total cpu time : 21332.7 secs   av.it.:  10.8
      thresh= 2.154E-06 alpha_mix =  0.700 |ddv_scf|^2 =  1.470E-11

      iter #   5 total cpu time : 21676.6 secs   av.it.:   9.8
      thresh= 3.835E-07 alpha_mix =  0.700 |ddv_scf|^2 =  9.831E-15

     End of self-consistent calculation

     Convergence has been achieved 


     Representation #   4 modes #   5   6

     Self-consistent Calculation

      iter #   1 total cpu time : 21916.7 secs   av.it.:   5.7
      thresh= 1.000E-02 alpha_mix =  0.700 |ddv_scf|^2 =  7.742E-08

      iter #   2 total cpu time : 22300.1 secs   av.it.:  11.2
      thresh= 2.783E-05 alpha_mix =  0.700 |ddv_scf|^2 =  1.023E-08

      iter #   3 total cpu time : 22676.6 secs   av.it.:  11.0
      thresh= 1.011E-05 alpha_mix =  0.700 |ddv_scf|^2 =  4.834E-10

      iter #   4 total cpu time : 23045.9 secs   av.it.:  10.7
      thresh= 2.199E-06 alpha_mix =  0.700 |ddv_scf|^2 =  1.514E-11

      iter #   5 total cpu time : 23387.5 secs   av.it.:   9.7
      thresh= 3.890E-07 alpha_mix =  0.700 |ddv_scf|^2 =  1.061E-14

      iter #   6 total cpu time : 23759.4 secs   av.it.:  10.8
      thresh= 1.030E-08 alpha_mix =  0.700 |ddv_scf|^2 =  2.107E-16

     End of self-consistent calculation

     Convergence has been achieved 
 
     Number of q in the star =    6
     List of q in the star:
          1   0.000000000   0.500000000   0.000000000
          2   0.000000000  -0.500000000   0.000000000
          3   0.500000000   0.000000000   0.000000000
          4   0.000000000   0.000000000   0.500000000
          5   0.000000000   0.000000000  -0.500000000
          6  -0.500000000   0.000000000   0.000000000

     Diagonalizing the dynamical matrix

     q = (    0.000000000   0.500000000   0.000000000 ) 

 **************************************************************************
     freq (    1) =       3.804474 [THz] =     126.903577 [cm-1]
     freq (    2) =       3.804474 [THz] =     126.903577 [cm-1]
     freq (    3) =       7.065105 [THz] =     235.666545 [cm-1]
     freq (    4) =      13.849929 [THz] =     461.983889 [cm-1]
     freq (    5) =      13.849929 [THz] =     461.983889 [cm-1]
     freq (    6) =      14.462486 [THz] =     482.416591 [cm-1]
 **************************************************************************

     Mode symmetry, C_4v (4mm)  point group:

     freq (   1-   2) =        126.9  [cm-1]   --> E    G_5 D_5       
     freq (   3-   3) =        235.7  [cm-1]   --> A_1  G_1 D_1       
     freq (   4-   5) =        462.0  [cm-1]   --> E    G_5 D_5       
     freq (   6-   6) =        482.4  [cm-1]   --> B_2  G_4 D_2'      

     Calculation of q =    0.7500000  -0.2500000   0.7500000
 
     G-vector sticks info
     --------------------
     sticks:   dense  smooth     PW     G-vecs:    dense   smooth      PW
     Sum        1165    1165    409                26565    26565    5329
 
     Using Slab Decomposition
 

     Title: 
     phonons of Si in Diamond structure                                         


     bravais-lattice index     =            2
     lattice parameter (alat)  =      10.3352  a.u.
     unit-cell volume          =     275.9921 (a.u.)^3
     number of atoms/cell      =            2
     number of atomic types    =            1
     number of electrons       =         8.00
     number of Kohn-Sham states=            4
     kinetic-energy cutoff     =      80.0000  Ry
     charge density cutoff     =     320.0000  Ry
     Exchange-correlation= PBE
                           (   1   4   3   4   0   0   0)

     celldm(1)=  10.335200  celldm(2)=   0.000000  celldm(3)=   0.000000
     celldm(4)=   0.000000  celldm(5)=   0.000000  celldm(6)=   0.000000

     crystal axes: (cart. coord. in units of alat)
               a(1) = (  -0.500000   0.000000   0.500000 )  
               a(2) = (   0.000000   0.500000   0.500000 )  
               a(3) = (  -0.500000   0.500000   0.000000 )  

     reciprocal axes: (cart. coord. in units 2 pi/alat)
               b(1) = ( -1.000000 -1.000000  1.000000 )  
               b(2) = (  1.000000  1.000000  1.000000 )  
               b(3) = ( -1.000000  1.000000 -1.000000 )  


     PseudoPot. # 1 for Si read from file:
     ../pseudo/Si.pbe-n-kjpaw_psl.1.0.0.UPF
     MD5 check sum: c39c59da582df4a0d9f10159256ea34e
     Pseudo is Projector augmented-wave + core cor, Zval =  4.0
     Generated using &quot;atomic&quot; code by A. Dal Corso  v.6.3
     Shape of augmentation charge: PSQ
     Using radial grid of 1141 points,  6 beta functions with: 
                l(1) =   0
                l(2) =   0
                l(3) =   1
                l(4) =   1
                l(5) =   2
                l(6) =   2
     Q(r) pseudized with 0 coefficients 


     atomic species   valence    mass     pseudopotential
        Si             4.00    28.08500     Si( 1.00)

     48 Sym. Ops., with inversion, found



   Cartesian axes

     site n.     atom                  positions (alat units)
         1           Si  tau(   1) = (   0.0000000   0.0000000   0.0000000  )
         2           Si  tau(   2) = (  -0.2500000   0.2500000   0.2500000  )

     number of k points= 16896

     Number of k-points >= 100: set verbosity='high' to print them.

     Dense  grid:    26565 G-vectors     FFT dimensions: (  48,  48,  48)

     Estimated max dynamical RAM per process >       3.45 GB

     The potential is recalculated from file :
     ./_ph0/pwscf.save/charge-density

     Starting wfcs are    8 atomic wfcs

     Band Structure Calculation
     Davidson diagonalization with overlap

     ethr =  1.25E-10,  avg # of iterations = 13.4

     total cpu time spent up to now is     2998.6 secs

     End of band structure calculation

     Number of k-points >= 100: set verbosity='high' to print the bands.

     highest occupied level (ev):     5.9606

     phonons of Si in Diamond structure                                         

     bravais-lattice index     =            2
     lattice parameter (alat)  =      10.3352  a.u.
     unit-cell volume          =     275.9921 (a.u.)^3
     number of atoms/cell      =            2
     number of atomic types    =            1
     kinetic-energy cut-off    =      80.0000  Ry
     charge density cut-off    =     320.0000  Ry
     convergence threshold     =      1.0E-14
     beta                      =       0.7000
     number of iterations used =            4
     Exchange-correlation= PBE
                           (   1   4   3   4   0   0   0)


     celldm(1)=   10.33520  celldm(2)=    0.00000  celldm(3)=    0.00000
     celldm(4)=    0.00000  celldm(5)=    0.00000  celldm(6)=    0.00000

     crystal axes: (cart. coord. in units of alat)
               a(1) = ( -0.5000  0.0000  0.5000 )  
               a(2) = (  0.0000  0.5000  0.5000 )  
               a(3) = ( -0.5000  0.5000  0.0000 )  

     reciprocal axes: (cart. coord. in units 2 pi/alat)
               b(1) = ( -1.0000 -1.0000  1.0000 )  
               b(2) = (  1.0000  1.0000  1.0000 )  
               b(3) = ( -1.0000  1.0000 -1.0000 )  


     Atoms inside the unit cell: 

     Cartesian axes

     site n.  atom      mass           positions (alat units)
        1     Si  28.0850   tau(    1) = (    0.00000    0.00000    0.00000  )
        2     Si  28.0850   tau(    2) = (   -0.25000    0.25000    0.25000  )

     Computing dynamical matrix for 
                    q = (   0.7500000  -0.2500000   0.7500000 )
 
      2 Sym.Ops. (no q -> -q+G )


     G cutoff =  865.8208  (  26565 G-vectors)     FFT grid: ( 48, 48, 48)
     number of k points= 16896

     PseudoPot. # 1 for Si read from file:
     ../pseudo/Si.pbe-n-kjpaw_psl.1.0.0.UPF
     MD5 check sum: c39c59da582df4a0d9f10159256ea34e
     Pseudo is Projector augmented-wave + core cor, Zval =  4.0
     Generated using &quot;atomic&quot; code by A. Dal Corso  v.6.3
     Shape of augmentation charge: PSQ
     Using radial grid of 1141 points,  6 beta functions with: 
                l(1) =   0
                l(2) =   0
                l(3) =   1
                l(4) =   1
                l(5) =   2
                l(6) =   2
     Q(r) pseudized with 0 coefficients 


     Mode symmetry, C_s (m)     point group:


     Atomic displacements:
     There are    6 irreducible representations

     Representation     1      1 modes -  To be done

     Representation     2      1 modes -  To be done

     Representation     3      1 modes -  To be done

     Representation     4      1 modes -  To be done

     Representation     5      1 modes -  To be done

     Representation     6      1 modes -  To be done



     Alpha used in Ewald sum =   2.8000
     PHONON       :      7h 6m CPU      7h 7m WALL



     Representation #   1 mode #   1

     Self-consistent Calculation

      iter #   1 total cpu time : 26164.4 secs   av.it.:   6.2
      thresh= 1.000E-02 alpha_mix =  0.700 |ddv_scf|^2 =  8.831E-06

      iter #   2 total cpu time : 26869.1 secs   av.it.:  10.4
      thresh= 2.972E-04 alpha_mix =  0.700 |ddv_scf|^2 =  2.534E-05

      iter #   3 total cpu time : 27514.1 secs   av.it.:   9.3
      thresh= 5.034E-04 alpha_mix =  0.700 |ddv_scf|^2 =  1.030E-07

      iter #   4 total cpu time : 28191.8 secs   av.it.:   9.9
      thresh= 3.210E-05 alpha_mix =  0.700 |ddv_scf|^2 =  3.885E-09

      iter #   5 total cpu time : 28877.0 secs   av.it.:  10.1
      thresh= 6.233E-06 alpha_mix =  0.700 |ddv_scf|^2 =  3.112E-10

      iter #   6 total cpu time : 29576.0 secs   av.it.:  10.3
      thresh= 1.764E-06 alpha_mix =  0.700 |ddv_scf|^2 =  2.830E-11

      iter #   7 total cpu time : 30256.2 secs   av.it.:  10.0
      thresh= 5.319E-07 alpha_mix =  0.700 |ddv_scf|^2 =  1.139E-12

      iter #   8 total cpu time : 30926.3 secs   av.it.:   9.8
      thresh= 1.067E-07 alpha_mix =  0.700 |ddv_scf|^2 =  2.063E-13

      iter #   9 total cpu time : 31620.6 secs   av.it.:  10.3
      thresh= 4.543E-08 alpha_mix =  0.700 |ddv_scf|^2 =  3.898E-13

      iter #  10 total cpu time : 32265.9 secs   av.it.:   9.3
      thresh= 6.243E-08 alpha_mix =  0.700 |ddv_scf|^2 =  8.740E-15

     End of self-consistent calculation

     Convergence has been achieved 


     Representation #   2 mode #   2

     Self-consistent Calculation

      iter #   1 total cpu time : 32758.0 secs   av.it.:   6.1
      thresh= 1.000E-02 alpha_mix =  0.700 |ddv_scf|^2 =  6.000E-06

      iter #   2 total cpu time : 33463.3 secs   av.it.:  10.4
      thresh= 2.450E-04 alpha_mix =  0.700 |ddv_scf|^2 =  1.711E-05

      iter #   3 total cpu time : 34107.8 secs   av.it.:   9.3
      thresh= 4.136E-04 alpha_mix =  0.700 |ddv_scf|^2 =  6.602E-08

      iter #   4 total cpu time : 34793.7 secs   av.it.:  10.1
      thresh= 2.569E-05 alpha_mix =  0.700 |ddv_scf|^2 =  4.463E-09

      iter #   5 total cpu time : 35478.4 secs   av.it.:  10.1
      thresh= 6.681E-06 alpha_mix =  0.700 |ddv_scf|^2 =  5.281E-10

      iter #   6 total cpu time : 36168.0 secs   av.it.:  10.2
      thresh= 2.298E-06 alpha_mix =  0.700 |ddv_scf|^2 =  2.973E-11

      iter #   7 total cpu time : 36846.7 secs   av.it.:  10.0
      thresh= 5.452E-07 alpha_mix =  0.700 |ddv_scf|^2 =  1.306E-12

      iter #   8 total cpu time : 37539.1 secs   av.it.:  10.2
      thresh= 1.143E-07 alpha_mix =  0.700 |ddv_scf|^2 =  6.015E-13

      iter #   9 total cpu time : 38212.7 secs   av.it.:   9.9
      thresh= 7.756E-08 alpha_mix =  0.700 |ddv_scf|^2 =  3.940E-13

      iter #  10 total cpu time : 38875.5 secs   av.it.:   9.7
      thresh= 6.277E-08 alpha_mix =  0.700 |ddv_scf|^2 =  1.307E-14

      iter #  11 total cpu time : 39559.4 secs   av.it.:  10.1
      thresh= 1.143E-08 alpha_mix =  0.700 |ddv_scf|^2 =  1.104E-15

     End of self-consistent calculation

     Convergence has been achieved 


     Representation #   3 mode #   3

     Self-consistent Calculation

      iter #   1 total cpu time : 40048.0 secs   av.it.:   6.1
      thresh= 1.000E-02 alpha_mix =  0.700 |ddv_scf|^2 =  4.535E-06

      iter #   2 total cpu time : 40750.7 secs   av.it.:  10.4
      thresh= 2.130E-04 alpha_mix =  0.700 |ddv_scf|^2 =  1.138E-05

      iter #   3 total cpu time : 41396.5 secs   av.it.:   9.3
      thresh= 3.373E-04 alpha_mix =  0.700 |ddv_scf|^2 =  1.211E-07

      iter #   4 total cpu time : 42066.3 secs   av.it.:   9.8
      thresh= 3.479E-05 alpha_mix =  0.700 |ddv_scf|^2 =  4.191E-09

      iter #   5 total cpu time : 42754.7 secs   av.it.:  10.2
      thresh= 6.474E-06 alpha_mix =  0.700 |ddv_scf|^2 =  7.943E-10

      iter #   6 total cpu time : 43440.9 secs   av.it.:  10.1
      thresh= 2.818E-06 alpha_mix =  0.700 |ddv_scf|^2 =  2.403E-11

      iter #   7 total cpu time : 44107.1 secs   av.it.:   9.8
      thresh= 4.902E-07 alpha_mix =  0.700 |ddv_scf|^2 =  1.134E-12

      iter #   8 total cpu time : 44773.1 secs   av.it.:   9.8
      thresh= 1.065E-07 alpha_mix =  0.700 |ddv_scf|^2 =  2.881E-14

      iter #   9 total cpu time : 45484.3 secs   av.it.:  10.6
      thresh= 1.697E-08 alpha_mix =  0.700 |ddv_scf|^2 =  2.413E-14

      iter #  10 total cpu time : 46151.8 secs   av.it.:   9.7
      thresh= 1.553E-08 alpha_mix =  0.700 |ddv_scf|^2 =  3.867E-15

     End of self-consistent calculation

     Convergence has been achieved 


     Representation #   4 mode #   4

     Self-consistent Calculation

      iter #   1 total cpu time : 46628.8 secs   av.it.:   5.8
      thresh= 1.000E-02 alpha_mix =  0.700 |ddv_scf|^2 =  1.705E-06

      iter #   2 total cpu time : 47340.6 secs   av.it.:  10.6
      thresh= 1.306E-04 alpha_mix =  0.700 |ddv_scf|^2 =  3.163E-06

      iter #   3 total cpu time : 47995.2 secs   av.it.:   9.5
      thresh= 1.778E-04 alpha_mix =  0.700 |ddv_scf|^2 =  9.601E-08

      iter #   4 total cpu time : 48671.1 secs   av.it.:   9.9
      thresh= 3.099E-05 alpha_mix =  0.700 |ddv_scf|^2 =  4.104E-09

      iter #   5 total cpu time : 49358.7 secs   av.it.:  10.1
      thresh= 6.407E-06 alpha_mix =  0.700 |ddv_scf|^2 =  8.995E-10

      iter #   6 total cpu time : 50046.2 secs   av.it.:  10.1
      thresh= 2.999E-06 alpha_mix =  0.700 |ddv_scf|^2 =  3.040E-11

      iter #   7 total cpu time : 50723.2 secs   av.it.:   9.9
      thresh= 5.514E-07 alpha_mix =  0.700 |ddv_scf|^2 =  1.294E-12

      iter #   8 total cpu time : 51409.5 secs   av.it.:  10.2
      thresh= 1.137E-07 alpha_mix =  0.700 |ddv_scf|^2 =  3.071E-13

      iter #   9 total cpu time : 52094.6 secs   av.it.:  10.1
      thresh= 5.542E-08 alpha_mix =  0.700 |ddv_scf|^2 =  2.134E-13

      iter #  10 total cpu time : 52756.7 secs   av.it.:   9.6
      thresh= 4.620E-08 alpha_mix =  0.700 |ddv_scf|^2 =  1.215E-14

      iter #  11 total cpu time : 53445.4 secs   av.it.:  10.1
      thresh= 1.102E-08 alpha_mix =  0.700 |ddv_scf|^2 =  9.276E-16

     End of self-consistent calculation

     Convergence has been achieved 


     Representation #   5 mode #   5

     Self-consistent Calculation

      iter #   1 total cpu time : 53906.9 secs   av.it.:   5.6
      thresh= 1.000E-02 alpha_mix =  0.700 |ddv_scf|^2 =  3.168E-07

      iter #   2 total cpu time : 54613.5 secs   av.it.:  10.4
      thresh= 5.629E-05 alpha_mix =  0.700 |ddv_scf|^2 =  4.839E-08

      iter #   3 total cpu time : 55304.0 secs   av.it.:  10.2
      thresh= 2.200E-05 alpha_mix =  0.700 |ddv_scf|^2 =  2.064E-09

      iter #   4 total cpu time : 55978.5 secs   av.it.:   9.9
      thresh= 4.543E-06 alpha_mix =  0.700 |ddv_scf|^2 =  6.259E-11

      iter #   5 total cpu time : 56597.6 secs   av.it.:   8.9
      thresh= 7.911E-07 alpha_mix =  0.700 |ddv_scf|^2 =  3.995E-14

      iter #   6 total cpu time : 57296.9 secs   av.it.:  10.4
      thresh= 1.999E-08 alpha_mix =  0.700 |ddv_scf|^2 =  4.153E-16

     End of self-consistent calculation

     Convergence has been achieved 


     Representation #   6 mode #   6

     Self-consistent Calculation

      iter #   1 total cpu time : 57758.5 secs   av.it.:   5.6
      thresh= 1.000E-02 alpha_mix =  0.700 |ddv_scf|^2 =  3.168E-07

      iter #   2 total cpu time : 58462.3 secs   av.it.:  10.4
      thresh= 5.629E-05 alpha_mix =  0.700 |ddv_scf|^2 =  4.839E-08

      iter #   3 total cpu time : 59151.3 secs   av.it.:  10.2
      thresh= 2.200E-05 alpha_mix =  0.700 |ddv_scf|^2 =  2.064E-09

      iter #   4 total cpu time : 59825.7 secs   av.it.:   9.9
      thresh= 4.543E-06 alpha_mix =  0.700 |ddv_scf|^2 =  6.259E-11

      iter #   5 total cpu time : 60444.8 secs   av.it.:   8.9
      thresh= 7.911E-07 alpha_mix =  0.700 |ddv_scf|^2 =  3.995E-14

      iter #   6 total cpu time : 61144.4 secs   av.it.:  10.4
      thresh= 1.999E-08 alpha_mix =  0.700 |ddv_scf|^2 =  4.153E-16

     End of self-consistent calculation

     Convergence has been achieved 
 
     Number of q in the star =   24
     List of q in the star:
          1   0.750000000  -0.250000000   0.750000000
          2   0.750000000  -0.250000000  -0.750000000
          3  -0.750000000  -0.250000000  -0.750000000
          4  -0.750000000  -0.250000000   0.750000000
          5  -0.750000000   0.250000000  -0.750000000
          6  -0.250000000   0.750000000  -0.750000000
          7  -0.750000000   0.750000000  -0.250000000
          8   0.750000000   0.250000000   0.750000000
          9  -0.750000000   0.250000000   0.750000000
         10   0.750000000   0.250000000  -0.750000000
         11  -0.750000000   0.750000000   0.250000000
         12  -0.250000000   0.750000000   0.750000000
         13   0.250000000   0.750000000  -0.750000000
         14  -0.250000000  -0.750000000  -0.750000000
         15   0.750000000   0.750000000  -0.250000000
         16   0.750000000  -0.750000000   0.250000000
         17  -0.750000000  -0.750000000  -0.250000000
         18   0.250000000  -0.750000000   0.750000000
         19  -0.750000000  -0.750000000   0.250000000
         20   0.250000000   0.750000000   0.750000000
         21  -0.250000000  -0.750000000   0.750000000
         22   0.750000000   0.750000000   0.250000000
         23   0.250000000  -0.750000000  -0.750000000
         24   0.750000000  -0.750000000  -0.250000000

     Diagonalizing the dynamical matrix

     q = (    0.750000000  -0.250000000   0.750000000 ) 

 **************************************************************************
     freq (    1) =       4.252645 [THz] =     141.852955 [cm-1]
     freq (    2) =       5.878289 [THz] =     196.078617 [cm-1]
     freq (    3) =       9.373407 [THz] =     312.663215 [cm-1]
     freq (    4) =      12.086959 [THz] =     403.177550 [cm-1]
     freq (    5) =      13.614361 [THz] =     454.126215 [cm-1]
     freq (    6) =      14.018764 [THz] =     467.615647 [cm-1]
 **************************************************************************

     Mode symmetry, C_s (m)     point group:

     freq (   1-   1) =        141.9  [cm-1]   --> A''                
     freq (   2-   2) =        196.1  [cm-1]   --> A'                 
     freq (   3-   3) =        312.7  [cm-1]   --> A'                 
     freq (   4-   4) =        403.2  [cm-1]   --> A'                 
     freq (   5-   5) =        454.1  [cm-1]   --> A''                
     freq (   6-   6) =        467.6  [cm-1]   --> A'                 

     Calculation of q =    0.5000000   0.0000000   0.5000000
 
     G-vector sticks info
     --------------------
     sticks:   dense  smooth     PW     G-vecs:    dense   smooth      PW
     Sum        1165    1165    379                26565    26565    5029
 
     Using Slab Decomposition
 

     Title: 
     phonons of Si in Diamond structure                                         


     bravais-lattice index     =            2
     lattice parameter (alat)  =      10.3352  a.u.
     unit-cell volume          =     275.9921 (a.u.)^3
     number of atoms/cell      =            2
     number of atomic types    =            1
     number of electrons       =         8.00
     number of Kohn-Sham states=            4
     kinetic-energy cutoff     =      80.0000  Ry
     charge density cutoff     =     320.0000  Ry
     Exchange-correlation= PBE
                           (   1   4   3   4   0   0   0)

     celldm(1)=  10.335200  celldm(2)=   0.000000  celldm(3)=   0.000000
     celldm(4)=   0.000000  celldm(5)=   0.000000  celldm(6)=   0.000000

     crystal axes: (cart. coord. in units of alat)
               a(1) = (  -0.500000   0.000000   0.500000 )  
               a(2) = (   0.000000   0.500000   0.500000 )  
               a(3) = (  -0.500000   0.500000   0.000000 )  

     reciprocal axes: (cart. coord. in units 2 pi/alat)
               b(1) = ( -1.000000 -1.000000  1.000000 )  
               b(2) = (  1.000000  1.000000  1.000000 )  
               b(3) = ( -1.000000  1.000000 -1.000000 )  


     PseudoPot. # 1 for Si read from file:
     ../pseudo/Si.pbe-n-kjpaw_psl.1.0.0.UPF
     MD5 check sum: c39c59da582df4a0d9f10159256ea34e
     Pseudo is Projector augmented-wave + core cor, Zval =  4.0
     Generated using &quot;atomic&quot; code by A. Dal Corso  v.6.3
     Shape of augmentation charge: PSQ
     Using radial grid of 1141 points,  6 beta functions with: 
                l(1) =   0
                l(2) =   0
                l(3) =   1
                l(4) =   1
                l(5) =   2
                l(6) =   2
     Q(r) pseudized with 0 coefficients 


     atomic species   valence    mass     pseudopotential
        Si             4.00    28.08500     Si( 1.00)

     48 Sym. Ops., with inversion, found



   Cartesian axes

     site n.     atom                  positions (alat units)
         1           Si  tau(   1) = (   0.0000000   0.0000000   0.0000000  )
         2           Si  tau(   2) = (  -0.2500000   0.2500000   0.2500000  )

     number of k points=  8448

     Number of k-points >= 100: set verbosity='high' to print them.

     Dense  grid:    26565 G-vectors     FFT dimensions: (  48,  48,  48)

     Estimated max dynamical RAM per process >       1.77 GB

     The potential is recalculated from file :
     ./_ph0/pwscf.save/charge-density

     Starting wfcs are    8 atomic wfcs

     Band Structure Calculation
     Davidson diagonalization with overlap

     ethr =  1.25E-10,  avg # of iterations = 13.4

     total cpu time spent up to now is     3838.7 secs

     End of band structure calculation

     Number of k-points >= 100: set verbosity='high' to print the bands.

     highest occupied level (ev):     5.9606

     phonons of Si in Diamond structure                                         

     bravais-lattice index     =            2
     lattice parameter (alat)  =      10.3352  a.u.
     unit-cell volume          =     275.9921 (a.u.)^3
     number of atoms/cell      =            2
     number of atomic types    =            1
     kinetic-energy cut-off    =      80.0000  Ry
     charge density cut-off    =     320.0000  Ry
     convergence threshold     =      1.0E-14
     beta                      =       0.7000
     number of iterations used =            4
     Exchange-correlation= PBE
                           (   1   4   3   4   0   0   0)


     celldm(1)=   10.33520  celldm(2)=    0.00000  celldm(3)=    0.00000
     celldm(4)=    0.00000  celldm(5)=    0.00000  celldm(6)=    0.00000

     crystal axes: (cart. coord. in units of alat)
               a(1) = ( -0.5000  0.0000  0.5000 )  
               a(2) = (  0.0000  0.5000  0.5000 )  
               a(3) = ( -0.5000  0.5000  0.0000 )  

     reciprocal axes: (cart. coord. in units 2 pi/alat)
               b(1) = ( -1.0000 -1.0000  1.0000 )  
               b(2) = (  1.0000  1.0000  1.0000 )  
               b(3) = ( -1.0000  1.0000 -1.0000 )  


     Atoms inside the unit cell: 

     Cartesian axes

     site n.  atom      mass           positions (alat units)
        1     Si  28.0850   tau(    1) = (    0.00000    0.00000    0.00000  )
        2     Si  28.0850   tau(    2) = (   -0.25000    0.25000    0.25000  )

     Computing dynamical matrix for 
                    q = (   0.5000000   0.0000000   0.5000000 )
 
      4 Sym.Ops. (no q -> -q+G )


     G cutoff =  865.8208  (  26565 G-vectors)     FFT grid: ( 48, 48, 48)
     number of k points=  8448

     PseudoPot. # 1 for Si read from file:
     ../pseudo/Si.pbe-n-kjpaw_psl.1.0.0.UPF
     MD5 check sum: c39c59da582df4a0d9f10159256ea34e
     Pseudo is Projector augmented-wave + core cor, Zval =  4.0
     Generated using &quot;atomic&quot; code by A. Dal Corso  v.6.3
     Shape of augmentation charge: PSQ
     Using radial grid of 1141 points,  6 beta functions with: 
                l(1) =   0
                l(2) =   0
                l(3) =   1
                l(4) =   1
                l(5) =   2
                l(6) =   2
     Q(r) pseudized with 0 coefficients 


     Mode symmetry, C_2v (mm2)  point group:


     Atomic displacements:
     There are    6 irreducible representations

     Representation     1      1 modes -  To be done

     Representation     2      1 modes -  To be done

     Representation     3      1 modes -  To be done

     Representation     4      1 modes -  To be done

     Representation     5      1 modes -  To be done

     Representation     6      1 modes -  To be done



     Alpha used in Ewald sum =   2.8000
     PHONON       :     17h11m CPU     17h15m WALL



     Representation #   1 mode #   1

     Self-consistent Calculation

      iter #   1 total cpu time : 62350.8 secs   av.it.:   5.9
      thresh= 1.000E-02 alpha_mix =  0.700 |ddv_scf|^2 =  5.176E-06

      iter #   2 total cpu time : 62697.9 secs   av.it.:  10.2
      thresh= 2.275E-04 alpha_mix =  0.700 |ddv_scf|^2 =  2.450E-05

      iter #   3 total cpu time : 63007.1 secs   av.it.:   8.8
      thresh= 4.950E-04 alpha_mix =  0.700 |ddv_scf|^2 =  6.810E-08

      iter #   4 total cpu time : 63348.8 secs   av.it.:  10.0
      thresh= 2.610E-05 alpha_mix =  0.700 |ddv_scf|^2 =  1.911E-09

      iter #   5 total cpu time : 63685.3 secs   av.it.:   9.9
      thresh= 4.371E-06 alpha_mix =  0.700 |ddv_scf|^2 =  6.118E-11

      iter #   6 total cpu time : 64001.8 secs   av.it.:   9.1
      thresh= 7.821E-07 alpha_mix =  0.700 |ddv_scf|^2 =  9.499E-13

      iter #   7 total cpu time : 64319.3 secs   av.it.:   9.1
      thresh= 9.746E-08 alpha_mix =  0.700 |ddv_scf|^2 =  2.499E-13

      iter #   8 total cpu time : 64657.2 secs   av.it.:   9.9
      thresh= 4.999E-08 alpha_mix =  0.700 |ddv_scf|^2 =  6.329E-13

      iter #   9 total cpu time : 64969.2 secs   av.it.:   8.9
      thresh= 7.956E-08 alpha_mix =  0.700 |ddv_scf|^2 =  1.968E-15

     End of self-consistent calculation

     Convergence has been achieved 


     Representation #   2 mode #   2

     Self-consistent Calculation

      iter #   1 total cpu time : 65229.1 secs   av.it.:   6.5
      thresh= 1.000E-02 alpha_mix =  0.700 |ddv_scf|^2 =  3.832E-05

      iter #   2 total cpu time : 65572.1 secs   av.it.:  10.1
      thresh= 6.191E-04 alpha_mix =  0.700 |ddv_scf|^2 =  2.030E-04

      iter #   3 total cpu time : 65879.7 secs   av.it.:   8.7
      thresh= 1.425E-03 alpha_mix =  0.700 |ddv_scf|^2 =  5.546E-08

      iter #   4 total cpu time : 66224.5 secs   av.it.:  10.2
      thresh= 2.355E-05 alpha_mix =  0.700 |ddv_scf|^2 =  2.559E-09

      iter #   5 total cpu time : 66561.7 secs   av.it.:   9.9
      thresh= 5.059E-06 alpha_mix =  0.700 |ddv_scf|^2 =  8.749E-11

      iter #   6 total cpu time : 66881.7 secs   av.it.:   9.3
      thresh= 9.354E-07 alpha_mix =  0.700 |ddv_scf|^2 =  2.341E-12

      iter #   7 total cpu time : 67201.6 secs   av.it.:   9.2
      thresh= 1.530E-07 alpha_mix =  0.700 |ddv_scf|^2 =  3.534E-13

      iter #   8 total cpu time : 67511.9 secs   av.it.:   8.8
      thresh= 5.945E-08 alpha_mix =  0.700 |ddv_scf|^2 =  3.308E-14

      iter #   9 total cpu time : 67847.6 secs   av.it.:   9.8
      thresh= 1.819E-08 alpha_mix =  0.700 |ddv_scf|^2 =  6.988E-14

      iter #  10 total cpu time : 68159.7 secs   av.it.:   8.9
      thresh= 2.643E-08 alpha_mix =  0.700 |ddv_scf|^2 =  1.395E-16

     End of self-consistent calculation

     Convergence has been achieved 


     Representation #   3 mode #   3

     Self-consistent Calculation

      iter #   1 total cpu time : 68393.8 secs   av.it.:   5.6
      thresh= 1.000E-02 alpha_mix =  0.700 |ddv_scf|^2 =  3.010E-07

      iter #   2 total cpu time : 68744.9 secs   av.it.:  10.3
      thresh= 5.486E-05 alpha_mix =  0.700 |ddv_scf|^2 =  3.087E-08

      iter #   3 total cpu time : 69090.0 secs   av.it.:  10.2
      thresh= 1.757E-05 alpha_mix =  0.700 |ddv_scf|^2 =  1.685E-09

      iter #   4 total cpu time : 69418.7 secs   av.it.:   9.5
      thresh= 4.105E-06 alpha_mix =  0.700 |ddv_scf|^2 =  5.366E-11

      iter #   5 total cpu time : 69720.3 secs   av.it.:   8.6
      thresh= 7.325E-07 alpha_mix =  0.700 |ddv_scf|^2 =  1.401E-14

      iter #   6 total cpu time : 70064.5 secs   av.it.:  10.1
      thresh= 1.184E-08 alpha_mix =  0.700 |ddv_scf|^2 =  2.366E-16

     End of self-consistent calculation

     Convergence has been achieved 


     Representation #   4 mode #   4

     Self-consistent Calculation

      iter #   1 total cpu time : 70283.2 secs   av.it.:   5.1
      thresh= 1.000E-02 alpha_mix =  0.700 |ddv_scf|^2 =  9.470E-08

      iter #   2 total cpu time : 70613.0 secs   av.it.:   9.6
      thresh= 3.077E-05 alpha_mix =  0.700 |ddv_scf|^2 =  7.908E-09

      iter #   3 total cpu time : 70942.2 secs   av.it.:   9.6
      thresh= 8.893E-06 alpha_mix =  0.700 |ddv_scf|^2 =  2.631E-10

      iter #   4 total cpu time : 71244.8 secs   av.it.:   8.6
      thresh= 1.622E-06 alpha_mix =  0.700 |ddv_scf|^2 =  4.600E-12

      iter #   5 total cpu time : 71557.0 secs   av.it.:   9.0
      thresh= 2.145E-07 alpha_mix =  0.700 |ddv_scf|^2 =  6.645E-15

     End of self-consistent calculation

     Convergence has been achieved 


     Representation #   5 mode #   5

     Self-consistent Calculation

      iter #   1 total cpu time : 71773.6 secs   av.it.:   5.0
      thresh= 1.000E-02 alpha_mix =  0.700 |ddv_scf|^2 =  1.249E-07

      iter #   2 total cpu time : 72121.7 secs   av.it.:  10.3
      thresh= 3.535E-05 alpha_mix =  0.700 |ddv_scf|^2 =  3.113E-08

      iter #   3 total cpu time : 72470.6 secs   av.it.:  10.3
      thresh= 1.764E-05 alpha_mix =  0.700 |ddv_scf|^2 =  8.182E-09

      iter #   4 total cpu time : 72809.2 secs   av.it.:  10.0
      thresh= 9.046E-06 alpha_mix =  0.700 |ddv_scf|^2 =  1.199E-10

      iter #   5 total cpu time : 73141.4 secs   av.it.:   9.7
      thresh= 1.095E-06 alpha_mix =  0.700 |ddv_scf|^2 =  6.638E-12

      iter #   6 total cpu time : 73483.3 secs   av.it.:  10.1
      thresh= 2.576E-07 alpha_mix =  0.700 |ddv_scf|^2 =  1.603E-14

      iter #   7 total cpu time : 73830.6 secs   av.it.:  10.3
      thresh= 1.266E-08 alpha_mix =  0.700 |ddv_scf|^2 =  5.708E-16

     End of self-consistent calculation

     Convergence has been achieved 


     Representation #   6 mode #   6

     Self-consistent Calculation

      iter #   1 total cpu time : 74074.0 secs   av.it.:   5.9
      thresh= 1.000E-02 alpha_mix =  0.700 |ddv_scf|^2 =  1.677E-06

      iter #   2 total cpu time : 74428.2 secs   av.it.:  10.5
      thresh= 1.295E-04 alpha_mix =  0.700 |ddv_scf|^2 =  1.250E-06

      iter #   3 total cpu time : 74766.4 secs   av.it.:   9.9
      thresh= 1.118E-04 alpha_mix =  0.700 |ddv_scf|^2 =  4.268E-09

      iter #   4 total cpu time : 75106.6 secs   av.it.:  10.0
      thresh= 6.533E-06 alpha_mix =  0.700 |ddv_scf|^2 =  2.815E-10

      iter #   5 total cpu time : 75450.7 secs   av.it.:  10.2
      thresh= 1.678E-06 alpha_mix =  0.700 |ddv_scf|^2 =  1.508E-11

      iter #   6 total cpu time : 75772.6 secs   av.it.:   9.3
      thresh= 3.883E-07 alpha_mix =  0.700 |ddv_scf|^2 =  1.210E-14

      iter #   7 total cpu time : 76110.2 secs   av.it.:   9.9
      thresh= 1.100E-08 alpha_mix =  0.700 |ddv_scf|^2 =  3.521E-16

     End of self-consistent calculation

     Convergence has been achieved 
 
     Number of q in the star =   12
     List of q in the star:
          1   0.500000000   0.000000000   0.500000000
          2  -0.500000000   0.000000000   0.500000000
          3  -0.500000000   0.000000000  -0.500000000
          4   0.500000000   0.000000000  -0.500000000
          5   0.000000000   0.500000000  -0.500000000
          6  -0.500000000   0.500000000   0.000000000
          7   0.000000000   0.500000000   0.500000000
          8   0.000000000  -0.500000000  -0.500000000
          9   0.500000000   0.500000000   0.000000000
         10   0.500000000  -0.500000000   0.000000000
         11  -0.500000000  -0.500000000   0.000000000
         12   0.000000000  -0.500000000   0.500000000

     Diagonalizing the dynamical matrix

     q = (    0.500000000   0.000000000   0.500000000 ) 

 **************************************************************************
     freq (    1) =       4.122866 [THz] =     137.523993 [cm-1]
     freq (    2) =       5.774876 [THz] =     192.629137 [cm-1]
     freq (    3) =       8.317150 [THz] =     277.430248 [cm-1]
     freq (    4) =      12.275730 [THz] =     409.474290 [cm-1]
     freq (    5) =      13.840374 [THz] =     461.665193 [cm-1]
     freq (    6) =      14.269217 [THz] =     475.969832 [cm-1]
 **************************************************************************

     Mode symmetry, C_2v (mm2)  point group:

     freq (   1-   1) =        137.5  [cm-1]   --> B_1  D_3  S_3      
     freq (   2-   2) =        192.6  [cm-1]   --> B_2  D_4  S_4      
     freq (   3-   3) =        277.4  [cm-1]   --> A_1  D_1  S_1      
     freq (   4-   4) =        409.5  [cm-1]   --> B_2  D_4  S_4      
     freq (   5-   5) =        461.7  [cm-1]   --> A_2  D_2  S_2      
     freq (   6-   6) =        476.0  [cm-1]   --> A_1  D_1  S_1      

     Calculation of q =    0.0000000  -1.0000000   0.0000000
 
     G-vector sticks info
     --------------------
     sticks:   dense  smooth     PW     G-vecs:    dense   smooth      PW
     Sum        1165    1165    397                26565    26565    5209
 
     Using Slab Decomposition
 

     Title: 
     phonons of Si in Diamond structure                                         


     bravais-lattice index     =            2
     lattice parameter (alat)  =      10.3352  a.u.
     unit-cell volume          =     275.9921 (a.u.)^3
     number of atoms/cell      =            2
     number of atomic types    =            1
     number of electrons       =         8.00
     number of Kohn-Sham states=            4
     kinetic-energy cutoff     =      80.0000  Ry
     charge density cutoff     =     320.0000  Ry
     Exchange-correlation= PBE
                           (   1   4   3   4   0   0   0)

     celldm(1)=  10.335200  celldm(2)=   0.000000  celldm(3)=   0.000000
     celldm(4)=   0.000000  celldm(5)=   0.000000  celldm(6)=   0.000000

     crystal axes: (cart. coord. in units of alat)
               a(1) = (  -0.500000   0.000000   0.500000 )  
               a(2) = (   0.000000   0.500000   0.500000 )  
               a(3) = (  -0.500000   0.500000   0.000000 )  

     reciprocal axes: (cart. coord. in units 2 pi/alat)
               b(1) = ( -1.000000 -1.000000  1.000000 )  
               b(2) = (  1.000000  1.000000  1.000000 )  
               b(3) = ( -1.000000  1.000000 -1.000000 )  


     PseudoPot. # 1 for Si read from file:
     ../pseudo/Si.pbe-n-kjpaw_psl.1.0.0.UPF
     MD5 check sum: c39c59da582df4a0d9f10159256ea34e
     Pseudo is Projector augmented-wave + core cor, Zval =  4.0
     Generated using &quot;atomic&quot; code by A. Dal Corso  v.6.3
     Shape of augmentation charge: PSQ
     Using radial grid of 1141 points,  6 beta functions with: 
                l(1) =   0
                l(2) =   0
                l(3) =   1
                l(4) =   1
                l(5) =   2
                l(6) =   2
     Q(r) pseudized with 0 coefficients 


     atomic species   valence    mass     pseudopotential
        Si             4.00    28.08500     Si( 1.00)

     48 Sym. Ops., with inversion, found



   Cartesian axes

     site n.     atom                  positions (alat units)
         1           Si  tau(   1) = (   0.0000000   0.0000000   0.0000000  )
         2           Si  tau(   2) = (  -0.2500000   0.2500000   0.2500000  )

     number of k points=  2176

     Number of k-points >= 100: set verbosity='high' to print them.

     Dense  grid:    26565 G-vectors     FFT dimensions: (  48,  48,  48)

[...]

     Representation     1      2 modes -  To be done

     Representation     2      2 modes -  To be done

     Representation     3      2 modes -  To be done



     Alpha used in Ewald sum =   2.8000
     PHONON       :     21h 8m CPU     21h12m WALL



     Representation #   1 modes #   1   2

     Self-consistent Calculation

      iter #   1 total cpu time : 76469.6 secs   av.it.:   4.8
      thresh= 1.000E-02 alpha_mix =  0.700 |ddv_scf|^2 =  2.289E-08

      iter #   2 total cpu time : 76650.8 secs   av.it.:  10.3
      thresh= 1.513E-05 alpha_mix =  0.700 |ddv_scf|^2 =  1.799E-09

      iter #   3 total cpu time : 76830.7 secs   av.it.:  10.3
      thresh= 4.242E-06 alpha_mix =  0.700 |ddv_scf|^2 =  6.008E-11

      iter #   4 total cpu time : 76998.4 secs   av.it.:   9.4
      thresh= 7.751E-07 alpha_mix =  0.700 |ddv_scf|^2 =  1.572E-13

      iter #   5 total cpu time : 77183.8 secs   av.it.:  10.7
      thresh= 3.965E-08 alpha_mix =  0.700 |ddv_scf|^2 =  3.320E-16

     End of self-consistent calculation

     Convergence has been achieved 


     Representation #   2 modes #   3   4

     Self-consistent Calculation

      iter #   1 total cpu time : 77309.9 secs   av.it.:   6.1
      thresh= 1.000E-02 alpha_mix =  0.700 |ddv_scf|^2 =  1.212E-06

      iter #   2 total cpu time : 77500.1 secs   av.it.:  11.0
      thresh= 1.101E-04 alpha_mix =  0.700 |ddv_scf|^2 =  1.688E-06

      iter #   3 total cpu time : 77680.3 secs   av.it.:  10.3
      thresh= 1.299E-04 alpha_mix =  0.700 |ddv_scf|^2 =  1.255E-09

      iter #   4 total cpu time : 77864.9 secs   av.it.:  10.6
      thresh= 3.543E-06 alpha_mix =  0.700 |ddv_scf|^2 =  9.709E-11

      iter #   5 total cpu time : 78052.2 secs   av.it.:  10.9
      thresh= 9.853E-07 alpha_mix =  0.700 |ddv_scf|^2 =  5.231E-12

      iter #   6 total cpu time : 78231.7 secs   av.it.:  10.3
      thresh= 2.287E-07 alpha_mix =  0.700 |ddv_scf|^2 =  1.434E-14

      iter #   7 total cpu time : 78413.8 secs   av.it.:  10.5
      thresh= 1.198E-08 alpha_mix =  0.700 |ddv_scf|^2 =  1.223E-16

     End of self-consistent calculation

     Convergence has been achieved 


     Representation #   3 modes #   5   6

     Self-consistent Calculation

      iter #   1 total cpu time : 78539.3 secs   av.it.:   6.0
      thresh= 1.000E-02 alpha_mix =  0.700 |ddv_scf|^2 =  2.143E-07

      iter #   2 total cpu time : 78733.9 secs   av.it.:  11.3
      thresh= 4.630E-05 alpha_mix =  0.700 |ddv_scf|^2 =  5.158E-08

      iter #   3 total cpu time : 78923.3 secs   av.it.:  11.0
      thresh= 2.271E-05 alpha_mix =  0.700 |ddv_scf|^2 =  6.318E-10

      iter #   4 total cpu time : 79106.3 secs   av.it.:  10.5
      thresh= 2.514E-06 alpha_mix =  0.700 |ddv_scf|^2 =  1.847E-11

      iter #   5 total cpu time : 79274.6 secs   av.it.:   9.4
      thresh= 4.298E-07 alpha_mix =  0.700 |ddv_scf|^2 =  4.163E-15

     End of self-consistent calculation

     Convergence has been achieved 
 
     Number of q in the star =    3
     List of q in the star:
          1   0.000000000  -1.000000000   0.000000000
          2  -1.000000000   0.000000000   0.000000000
          3   0.000000000   0.000000000  -1.000000000

     Diagonalizing the dynamical matrix

     q = (    0.000000000  -1.000000000   0.000000000 ) 

 **************************************************************************
     freq (    1) =       4.402190 [THz] =     146.841241 [cm-1]
     freq (    2) =       4.402190 [THz] =     146.841241 [cm-1]
     freq (    3) =      12.030485 [THz] =     401.293772 [cm-1]
     freq (    4) =      12.030485 [THz] =     401.293772 [cm-1]
     freq (    5) =      13.392819 [THz] =     446.736346 [cm-1]
     freq (    6) =      13.392819 [THz] =     446.736346 [cm-1]
 **************************************************************************

     Calculation of q =   -0.5000000  -1.0000000   0.0000000
 
     G-vector sticks info
     --------------------
     sticks:   dense  smooth     PW     G-vecs:    dense   smooth      PW
     Sum        1165    1165    409                26565    26565    5329
 
     Using Slab Decomposition
 

     Title: 
     phonons of Si in Diamond structure                                         


     bravais-lattice index     =            2
     lattice parameter (alat)  =      10.3352  a.u.
     unit-cell volume          =     275.9921 (a.u.)^3
     number of atoms/cell      =            2
     number of atomic types    =            1
     number of electrons       =         8.00
     number of Kohn-Sham states=            4
     kinetic-energy cutoff     =      80.0000  Ry
     charge density cutoff     =     320.0000  Ry
     Exchange-correlation= PBE
                           (   1   4   3   4   0   0   0)

     celldm(1)=  10.335200  celldm(2)=   0.000000  celldm(3)=   0.000000
     celldm(4)=   0.000000  celldm(5)=   0.000000  celldm(6)=   0.000000

     crystal axes: (cart. coord. in units of alat)
               a(1) = (  -0.500000   0.000000   0.500000 )  
               a(2) = (   0.000000   0.500000   0.500000 )  
               a(3) = (  -0.500000   0.500000   0.000000 )  

     reciprocal axes: (cart. coord. in units 2 pi/alat)
               b(1) = ( -1.000000 -1.000000  1.000000 )  
               b(2) = (  1.000000  1.000000  1.000000 )  
               b(3) = ( -1.000000  1.000000 -1.000000 )  


     PseudoPot. # 1 for Si read from file:
     ../pseudo/Si.pbe-n-kjpaw_psl.1.0.0.UPF
     MD5 check sum: c39c59da582df4a0d9f10159256ea34e
     Pseudo is Projector augmented-wave + core cor, Zval =  4.0
     Generated using &quot;atomic&quot; code by A. Dal Corso  v.6.3
     Shape of augmentation charge: PSQ
     Using radial grid of 1141 points,  6 beta functions with: 
                l(1) =   0
                l(2) =   0
                l(3) =   1
                l(4) =   1
                l(5) =   2
                l(6) =   2
     Q(r) pseudized with 0 coefficients 


     atomic species   valence    mass     pseudopotential
        Si             4.00    28.08500     Si( 1.00)

     48 Sym. Ops., with inversion, found



   Cartesian axes

     site n.     atom                  positions (alat units)
         1           Si  tau(   1) = (   0.0000000   0.0000000   0.0000000  )
         2           Si  tau(   2) = (  -0.2500000   0.2500000   0.2500000  )

     number of k points=  4096

     Number of k-points >= 100: set verbosity='high' to print them.

     Dense  grid:    26565 G-vectors     FFT dimensions: (  48,  48,  48)

     Estimated max dynamical RAM per process >     924.39 MB

     The potential is recalculated from file :
     ./_ph0/pwscf.save/charge-density

     Starting wfcs are    8 atomic wfcs

     Band Structure Calculation
     Davidson diagonalization with overlap

     ethr =  1.25E-10,  avg # of iterations = 13.4

     total cpu time spent up to now is     4461.2 secs

     End of band structure calculation

     Number of k-points >= 100: set verbosity='high' to print the bands.

     highest occupied level (ev):     5.9606

     phonons of Si in Diamond structure                                         

     bravais-lattice index     =            2
     lattice parameter (alat)  =      10.3352  a.u.
     unit-cell volume          =     275.9921 (a.u.)^3
     number of atoms/cell      =            2
     number of atomic types    =            1
     kinetic-energy cut-off    =      80.0000  Ry
     charge density cut-off    =     320.0000  Ry
     convergence threshold     =      1.0E-14
     beta                      =       0.7000
     number of iterations used =            4
     Exchange-correlation= PBE
                           (   1   4   3   4   0   0   0)


     celldm(1)=   10.33520  celldm(2)=    0.00000  celldm(3)=    0.00000
     celldm(4)=    0.00000  celldm(5)=    0.00000  celldm(6)=    0.00000

     crystal axes: (cart. coord. in units of alat)
               a(1) = ( -0.5000  0.0000  0.5000 )  
               a(2) = (  0.0000  0.5000  0.5000 )  
               a(3) = ( -0.5000  0.5000  0.0000 )  

     reciprocal axes: (cart. coord. in units 2 pi/alat)
               b(1) = ( -1.0000 -1.0000  1.0000 )  
               b(2) = (  1.0000  1.0000  1.0000 )  
               b(3) = ( -1.0000  1.0000 -1.0000 )  


     Atoms inside the unit cell: 

     Cartesian axes

     site n.  atom      mass           positions (alat units)
        1     Si  28.0850   tau(    1) = (    0.00000    0.00000    0.00000  )
        2     Si  28.0850   tau(    2) = (   -0.25000    0.25000    0.25000  )

     Computing dynamical matrix for 
                    q = (  -0.5000000  -1.0000000   0.0000000 )
 
      8 Sym.Ops. (no q -> -q+G )


     G cutoff =  865.8208  (  26565 G-vectors)     FFT grid: ( 48, 48, 48)
     number of k points=  4096

     PseudoPot. # 1 for Si read from file:
     ../pseudo/Si.pbe-n-kjpaw_psl.1.0.0.UPF
     MD5 check sum: c39c59da582df4a0d9f10159256ea34e
     Pseudo is Projector augmented-wave + core cor, Zval =  4.0
     Generated using &quot;atomic&quot; code by A. Dal Corso  v.6.3
     Shape of augmentation charge: PSQ
     Using radial grid of 1141 points,  6 beta functions with: 
                l(1) =   0
                l(2) =   0
                l(3) =   1
                l(4) =   1
                l(5) =   2
                l(6) =   2
     Q(r) pseudized with 0 coefficients 



     Atomic displacements:
     There are    3 irreducible representations

     Representation     1      2 modes -  To be done

     Representation     2      2 modes -  To be done

     Representation     3      2 modes -  To be done



     Alpha used in Ewald sum =   2.8000
     PHONON       :     22h 4m CPU     22h 9m WALL



     Representation #   1 modes #   1   2

     Self-consistent Calculation

      iter #   1 total cpu time : 79963.7 secs   av.it.:   5.6
      thresh= 1.000E-02 alpha_mix =  0.700 |ddv_scf|^2 =  1.477E-07

      iter #   2 total cpu time : 80328.4 secs   av.it.:  11.3
      thresh= 3.844E-05 alpha_mix =  0.700 |ddv_scf|^2 =  7.000E-08

      iter #   3 total cpu time : 80680.3 secs   av.it.:  10.9
      thresh= 2.646E-05 alpha_mix =  0.700 |ddv_scf|^2 =  9.247E-10

      iter #   4 total cpu time : 81030.7 secs   av.it.:  10.8
      thresh= 3.041E-06 alpha_mix =  0.700 |ddv_scf|^2 =  2.293E-11

      iter #   5 total cpu time : 81356.5 secs   av.it.:   9.9
      thresh= 4.788E-07 alpha_mix =  0.700 |ddv_scf|^2 =  5.085E-14

      iter #   6 total cpu time : 81707.8 secs   av.it.:  10.8
      thresh= 2.255E-08 alpha_mix =  0.700 |ddv_scf|^2 =  3.014E-16

     End of self-consistent calculation

     Convergence has been achieved 


     Representation #   2 modes #   3   4

     Self-consistent Calculation

      iter #   1 total cpu time : 81943.5 secs   av.it.:   6.0
      thresh= 1.000E-02 alpha_mix =  0.700 |ddv_scf|^2 =  7.099E-07

      iter #   2 total cpu time : 82309.7 secs   av.it.:  11.3
      thresh= 8.426E-05 alpha_mix =  0.700 |ddv_scf|^2 =  9.655E-07

      iter #   3 total cpu time : 82657.5 secs   av.it.:  10.6
      thresh= 9.826E-05 alpha_mix =  0.700 |ddv_scf|^2 =  1.014E-09

      iter #   4 total cpu time : 83004.5 secs   av.it.:  10.6
      thresh= 3.185E-06 alpha_mix =  0.700 |ddv_scf|^2 =  3.502E-11

      iter #   5 total cpu time : 83345.3 secs   av.it.:  10.4
      thresh= 5.918E-07 alpha_mix =  0.700 |ddv_scf|^2 =  1.092E-12

      iter #   6 total cpu time : 83689.0 secs   av.it.:  10.5
      thresh= 1.045E-07 alpha_mix =  0.700 |ddv_scf|^2 =  9.381E-16

     End of self-consistent calculation

     Convergence has been achieved 


     Representation #   3 modes #   5   6

     Self-consistent Calculation

      iter #   1 total cpu time : 83930.4 secs   av.it.:   6.1
      thresh= 1.000E-02 alpha_mix =  0.700 |ddv_scf|^2 =  4.952E-07

      iter #   2 total cpu time : 84293.3 secs   av.it.:  11.3
      thresh= 7.037E-05 alpha_mix =  0.700 |ddv_scf|^2 =  2.824E-07

      iter #   3 total cpu time : 84642.2 secs   av.it.:  10.7
      thresh= 5.314E-05 alpha_mix =  0.700 |ddv_scf|^2 =  8.023E-10

      iter #   4 total cpu time : 84983.7 secs   av.it.:  10.5
      thresh= 2.833E-06 alpha_mix =  0.700 |ddv_scf|^2 =  2.364E-11

      iter #   5 total cpu time : 85298.4 secs   av.it.:   9.4
      thresh= 4.862E-07 alpha_mix =  0.700 |ddv_scf|^2 =  2.398E-13

      iter #   6 total cpu time : 85636.3 secs   av.it.:  10.3
      thresh= 4.897E-08 alpha_mix =  0.700 |ddv_scf|^2 =  2.615E-16

     End of self-consistent calculation

     Convergence has been achieved 
 
     Number of q in the star =    6
     List of q in the star:
          1  -0.500000000  -1.000000000   0.000000000
          2   0.000000000   1.000000000   0.500000000
          3   0.000000000  -1.000000000  -0.500000000
          4   0.500000000   1.000000000   0.000000000
          5  -1.000000000  -0.500000000   0.000000000
          6   0.000000000  -0.500000000  -1.000000000

     Diagonalizing the dynamical matrix

     q = (   -0.500000000  -1.000000000   0.000000000 ) 

 **************************************************************************
     freq (    1) =       6.018218 [THz] =     200.746158 [cm-1]
     freq (    2) =       6.018218 [THz] =     200.746158 [cm-1]
     freq (    3) =      10.344591 [THz] =     345.058419 [cm-1]
     freq (    4) =      10.344591 [THz] =     345.058419 [cm-1]
     freq (    5) =      13.584968 [THz] =     453.145749 [cm-1]
     freq (    6) =      13.584968 [THz] =     453.145749 [cm-1]
 **************************************************************************
 
     init_run     :     13.28s CPU     13.35s WALL (       7 calls)
     electrons    :   4432.60s CPU   4447.85s WALL (       7 calls)

     Called by init_run:
     wfcinit      :      0.00s CPU      0.00s WALL (       7 calls)
     potinit      :      1.08s CPU      1.10s WALL (       7 calls)
     hinit0       :      1.23s CPU      1.23s WALL (       7 calls)

     Called by electrons:
     c_bands      :   4432.60s CPU   4447.85s WALL (       7 calls)
     v_of_rho     :      0.17s CPU      0.18s WALL (       8 calls)
     newd         :      0.16s CPU      0.18s WALL (       8 calls)
     PAW_pot      :      1.06s CPU      1.06s WALL (       8 calls)

     Called by c_bands:
     init_us_2    :    521.44s CPU    523.32s WALL ( 1260024 calls)
     init_us_2:cp :    519.89s CPU    522.11s WALL ( 1260024 calls)
     cegterg      :   3643.14s CPU   3656.04s WALL (   44944 calls)

     Called by *egterg:
     cdiaghg      :     16.24s CPU     16.43s WALL (  649842 calls)
     h_psi        :  63611.07s CPU  63814.17s WALL (12409251 calls)
     s_psi        :   3168.28s CPU   3188.24s WALL (25162628 calls)
     g_psi        :     15.93s CPU     16.11s WALL (  604898 calls)

     Called by h_psi:
     h_psi:calbec :   1565.55s CPU   1570.22s WALL (12409251 calls)
     vloc_psi     :  60378.61s CPU  60571.85s WALL (12409251 calls)
     add_vuspsi   :   1567.68s CPU   1575.16s WALL (12409251 calls)

     General routines
     calbec       :   3373.12s CPU   3391.52s WALL (27324132 calls)
     fft          :      3.76s CPU      3.79s WALL (    5743 calls)
     ffts         :     91.74s CPU     92.07s WALL (  139968 calls)
     fftw         :  68020.82s CPU  68237.86s WALL (******** calls)
     davcio       :      0.30s CPU     12.59s WALL (    1224 calls)
 
 
     PHONON       :     23h42m CPU     23h47m WALL

     INITIALIZATION: 
     phq_setup    :      0.52s CPU      0.90s WALL (       8 calls)
     phq_init     :    645.71s CPU    647.62s WALL (       8 calls)
 
     phq_init     :    645.71s CPU    647.62s WALL (       8 calls)
     set_drhoc    :      3.35s CPU      3.36s WALL (      24 calls)
     init_vloc    :      0.01s CPU      0.01s WALL (       8 calls)
     init_us_1    :      1.26s CPU      1.26s WALL (       8 calls)
     init_us_2    :    521.44s CPU    523.32s WALL ( 1260024 calls)
     newd         :      0.16s CPU      0.18s WALL (       8 calls)
     dvanqq       :      3.31s CPU      3.33s WALL (       8 calls)
     drho         :    583.39s CPU    584.93s WALL (       8 calls)
     drhous       :    556.55s CPU    557.95s WALL (       8 calls)
     nldyntot     :      2.43s CPU      2.43s WALL (       8 calls)
 
     DYNAMICAL MATRIX:
     dynmat0      :     34.93s CPU     35.16s WALL (       8 calls)
     dynmat_us    :     32.50s CPU     32.64s WALL (       8 calls)
     addusdynmat  :      0.00s CPU      0.00s WALL (       8 calls)
     d2ionq       :      0.02s CPU      0.02s WALL (       8 calls)
     dynmatcc     :      2.42s CPU      2.42s WALL (       8 calls)
     phqscf       :  79499.58s CPU  79775.71s WALL (       8 calls)
     dynmatrix    :      0.00s CPU      0.10s WALL (       8 calls)
 
     phqscf       :  79499.58s CPU  79775.71s WALL (       8 calls)
     solve_linter :  79331.78s CPU  79606.23s WALL (      32 calls)
     sth_kernel   :  78477.79s CPU  78746.75s WALL (     230 calls)
     h_prec       :     28.49s CPU     28.66s WALL (  895288 calls)
     apply_dpot_b :   5212.31s CPU   5227.98s WALL (  897960 calls)
     ortho        :    328.90s CPU    330.29s WALL ( 1037688 calls)
     cgsolve      :  65958.59s CPU  66189.13s WALL ( 1037688 calls)
     incdrhoscf   :   6415.24s CPU   6434.45s WALL ( 1037688 calls)
                                        0.00s GPU  ( 1037688 calls)
     addusddens   :     20.41s CPU     20.44s WALL (     257 calls)
     dv_of_drho   :      3.42s CPU      3.47s WALL (     331 calls)
     mix_pot      :      0.51s CPU      0.53s WALL (     230 calls)
     drhodv       :    124.64s CPU    125.25s WALL (      32 calls)
     symdvscf     :      5.19s CPU      5.20s WALL (     225 calls)
     newdq        :     23.57s CPU     23.62s WALL (     230 calls)
     adddvscf     :    259.21s CPU    260.16s WALL (  897960 calls)
     drhodvus     :      0.03s CPU      0.04s WALL (      32 calls)
 
     dvqpsi_us    :   1061.41s CPU   1064.82s WALL (  139728 calls)
                                        0.00s GPU  (  139728 calls)
     dvqpsi_us_on :    138.56s CPU    138.85s WALL (  139728 calls)
 
     add_vuspsi   :   1567.68s CPU   1575.16s WALL (12409251 calls)
     addusdbec    :    146.25s CPU    146.49s WALL ( 1174968 calls)
 
     drhodvus     :      0.03s CPU      0.04s WALL (      32 calls)
 
      General routines
     calbec       :   3373.12s CPU   3391.52s WALL (27324132 calls)
     fft          :      3.76s CPU      3.79s WALL (    5743 calls)
     ffts         :     91.74s CPU     92.07s WALL (  139968 calls)
     fftw         :  68020.82s CPU  68237.86s WALL (******** calls)
     davcio       :      0.30s CPU     12.59s WALL (    1224 calls)
     write_rec    :      0.06s CPU      3.98s WALL (     262 calls)
 
      Additional routines
     ch_psi       :  65209.60s CPU  65432.35s WALL (11714465 calls)
     last         :   3762.64s CPU   3787.23s WALL (11714465 calls)
     Hesh         :     76.93s CPU     78.53s WALL (11714465 calls)
     ch_psi_all_k :   3664.14s CPU   3689.00s WALL (11714465 calls)
                                        0.00s GPU  (11714465 calls)
     ch_psi_calbe :   1462.08s CPU   1469.77s WALL (11714465 calls)
                                        0.00s GPU  (11714465 calls)
     h_psi_bgrp   :  63623.79s CPU  63825.63s WALL (12409251 calls)
     h_psi        :  63611.07s CPU  63814.17s WALL (12409251 calls)
     h_psi:pot    :  63540.04s CPU  63741.55s WALL (12409251 calls)
     h_psi:calbec :   1565.55s CPU   1570.22s WALL (12409251 calls)
     s_psi_bgrp   :   3298.64s CPU   3317.84s WALL (25162628 calls)
     s_psi        :   3168.28s CPU   3188.24s WALL (25162628 calls)
 
 
     PHONON       :     23h42m CPU     23h47m WALL

 
   This run was terminated on:  19:18:26   9May2023            

=------------------------------------------------------------------------------=
   JOB DONE.
=------------------------------------------------------------------------------=
