
     Program PHONON v.7.2 starts on  8May2023 at  0: 4:42 

     This program is part of the open-source Quantum ESPRESSO suite
     for quantum simulation of materials; please cite
         "P. Giannozzi et al., J. Phys.:Condens. Matter 21 395502 (2009);
         "P. Giannozzi et al., J. Phys.:Condens. Matter 29 465901 (2017);
         "P. Giannozzi et al., J. Chem. Phys. 152 154105 (2020);
          URL http://www.quantum-espresso.org", 
     in publications or presentations arising from this work. More details at
     http://www.quantum-espresso.org/quote

     Serial multi-threaded version, running on   16 processor cores
     513619 MiB available memory on the printing compute node when the environment starts
 
     Waiting for input...
     Reading input from standard input

     Reading xml data from directory:

     ./pwscf.save/
 
     file Si.pbe-n-kjpaw_psl.1.0.0.UPF: wavefunction(s)  3S 3P renormalized

     IMPORTANT: XC functional enforced from input :
     Exchange-correlation= PBE
                           (   1   4   3   4   0   0   0)
     Any further DFT definition will be discarded
     Please, verify this is what you really want

 
     G-vector sticks info
     --------------------
     sticks:   dense  smooth     PW     G-vecs:    dense   smooth      PW
     Sum        1165    1165    361                26565    26565    4573
 
     Using Slab Decomposition
 
     Reading collected, re-writing distributed wavefunctions in ./


     Dynamical matrices for ( 4, 4, 4)  uniform grid of q-points
     (   8 q-points):
       N         xq(1)         xq(2)         xq(3) 
       1   0.000000000   0.000000000   0.000000000
       2  -0.250000000   0.250000000  -0.250000000
       3   0.500000000  -0.500000000   0.500000000
       4   0.000000000   0.500000000   0.000000000
       5   0.750000000  -0.250000000   0.750000000
       6   0.500000000   0.000000000   0.500000000
       7   0.000000000  -1.000000000   0.000000000
       8  -0.500000000  -1.000000000   0.000000000

     Calculation of q =    0.0000000   0.0000000   0.0000000

     GPU acceleration is ACTIVE.


     phonons of Si in Diamond structure                                         

     bravais-lattice index     =            2
     lattice parameter (alat)  =      10.3352  a.u.
     unit-cell volume          =     275.9921 (a.u.)^3
     number of atoms/cell      =            2
     number of atomic types    =            1
     kinetic-energy cut-off    =      80.0000  Ry
     charge density cut-off    =     320.0000  Ry
     convergence threshold     =      1.0E-14
     beta                      =       0.7000
     number of iterations used =            4
     Exchange-correlation= PBE
                           (   1   4   3   4   0   0   0)


     celldm(1)=   10.33520  celldm(2)=    0.00000  celldm(3)=    0.00000
     celldm(4)=    0.00000  celldm(5)=    0.00000  celldm(6)=    0.00000

     crystal axes: (cart. coord. in units of alat)
               a(1) = ( -0.5000  0.0000  0.5000 )  
               a(2) = (  0.0000  0.5000  0.5000 )  
               a(3) = ( -0.5000  0.5000  0.0000 )  

     reciprocal axes: (cart. coord. in units 2 pi/alat)
               b(1) = ( -1.0000 -1.0000  1.0000 )  
               b(2) = (  1.0000  1.0000  1.0000 )  
               b(3) = ( -1.0000  1.0000 -1.0000 )  


     Atoms inside the unit cell: 

     Cartesian axes

     site n.  atom      mass           positions (alat units)
        1     Si  28.0850   tau(    1) = (    0.00000    0.00000    0.00000  )
        2     Si  28.0850   tau(    2) = (   -0.25000    0.25000    0.25000  )

     Computing dynamical matrix for 
                    q = (   0.0000000   0.0000000   0.0000000 )
 
     49 Sym.Ops. (with q -> -q+G )


     G cutoff =  865.8208  (  26565 G-vectors)     FFT grid: ( 48, 48, 48)
     number of k points=   408

     PseudoPot. # 1 for Si read from file:
     ../pseudo/Si.pbe-n-kjpaw_psl.1.0.0.UPF
     MD5 check sum: c39c59da582df4a0d9f10159256ea34e
     Pseudo is Projector augmented-wave + core cor, Zval =  4.0
     Generated using &quot;atomic&quot; code by A. Dal Corso  v.6.3
     Shape of augmentation charge: PSQ
     Using radial grid of 1141 points,  6 beta functions with: 
                l(1) =   0
                l(2) =   0
                l(3) =   1
                l(4) =   1
                l(5) =   2
                l(6) =   2
     Q(r) pseudized with 0 coefficients 


     Mode symmetry, O_h (m-3m)  point group:


     Electric field:
     Dielectric constant
     Born effective charges in two ways 


     Atomic displacements:
     There are    2 irreducible representations

     Representation     1      3 modes -  To be done

     Representation     2      3 modes -  To be done



     Alpha used in Ewald sum =   2.8000
     PHONON       :     40.48s CPU     15.70s WALL


     Electric Fields Calculation

      iter #   1 total cpu time :    66.1 secs   av.it.:   6.2
      thresh= 1.000E-02 alpha_mix =  0.700 |ddv_scf|^2 =  5.820E-08

      iter #   2 total cpu time :    89.7 secs   av.it.:  11.6
      thresh= 2.413E-05 alpha_mix =  0.700 |ddv_scf|^2 =  3.325E-09

      iter #   3 total cpu time :   112.8 secs   av.it.:  11.3
      thresh= 5.766E-06 alpha_mix =  0.700 |ddv_scf|^2 =  2.116E-10

      iter #   4 total cpu time :   135.4 secs   av.it.:  10.9
      thresh= 1.455E-06 alpha_mix =  0.700 |ddv_scf|^2 =  2.244E-12

      iter #   5 total cpu time :   158.2 secs   av.it.:  10.9
      thresh= 1.498E-07 alpha_mix =  0.700 |ddv_scf|^2 =  5.136E-15

     End of electric fields calculation

          Dielectric constant in cartesian axis 

          (      12.970938301      -0.000000000      -0.000000000 )
          (      -0.000000000      12.970938301      -0.000000000 )
          (       0.000000000      -0.000000000      12.970938301 )

          Effective charges (d Force / dE) in cartesian axis without acoustic sum rule applied (asr)

           atom      1   Si Mean Z*:        0.00002
      Ex  (        0.00002       -0.00000        0.00000 )
      Ey  (        0.00000        0.00002       -0.00000 )
      Ez  (        0.00000       -0.00000        0.00002 )
           atom      2   Si Mean Z*:        0.00002
      Ex  (        0.00002       -0.00000       -0.00000 )
      Ey  (        0.00000        0.00002        0.00000 )
      Ez  (       -0.00000        0.00000        0.00002 )

          Effective charges Sum: Mean:        0.00004
              0.00004        0.00000       -0.00000
             -0.00000        0.00004       -0.00000
             -0.00000       -0.00000        0.00004

          Effective charges (d Force / dE) in cartesian axis with asr applied: 
           atom      1   Si Mean Z*:        0.00000
      E*x (        0.00000        0.00000        0.00000 )
      E*y (        0.00000        0.00000       -0.00000 )
      E*z (        0.00000       -0.00000        0.00000 )
           atom      2   Si Mean Z*:       -0.00000
      E*x (       -0.00000       -0.00000       -0.00000 )
      E*y (       -0.00000       -0.00000        0.00000 )
      E*z (       -0.00000        0.00000       -0.00000 )


     Representation #   1 modes #   1   2   3

     Self-consistent Calculation

      iter #   1 total cpu time :   218.7 secs   av.it.:   5.4
      thresh= 1.000E-02 alpha_mix =  0.700 |ddv_scf|^2 =  1.484E-08

      iter #   2 total cpu time :   241.7 secs   av.it.:  11.2
      thresh= 1.218E-05 alpha_mix =  0.700 |ddv_scf|^2 =  1.000E-09

      iter #   3 total cpu time :   264.3 secs   av.it.:  11.0
      thresh= 3.162E-06 alpha_mix =  0.700 |ddv_scf|^2 =  7.386E-11

      iter #   4 total cpu time :   286.1 secs   av.it.:  10.5
      thresh= 8.594E-07 alpha_mix =  0.700 |ddv_scf|^2 =  3.197E-12

      iter #   5 total cpu time :   307.2 secs   av.it.:  10.0
      thresh= 1.788E-07 alpha_mix =  0.700 |ddv_scf|^2 =  1.483E-15

     End of self-consistent calculation

     Convergence has been achieved 


     Representation #   2 modes #   4   5   6

     Self-consistent Calculation

      iter #   1 total cpu time :   341.0 secs   av.it.:   5.4
      thresh= 1.000E-02 alpha_mix =  0.700 |ddv_scf|^2 =  1.356E-08

      iter #   2 total cpu time :   363.9 secs   av.it.:  11.2
      thresh= 1.164E-05 alpha_mix =  0.700 |ddv_scf|^2 =  1.071E-09

      iter #   3 total cpu time :   386.5 secs   av.it.:  11.0
      thresh= 3.273E-06 alpha_mix =  0.700 |ddv_scf|^2 =  7.158E-11

      iter #   4 total cpu time :   409.3 secs   av.it.:  11.0
      thresh= 8.461E-07 alpha_mix =  0.700 |ddv_scf|^2 =  4.153E-12

      iter #   5 total cpu time :   430.5 secs   av.it.:   9.9
      thresh= 2.038E-07 alpha_mix =  0.700 |ddv_scf|^2 =  7.463E-16

     End of self-consistent calculation

     Convergence has been achieved 
 
     Number of q in the star =    1
     List of q in the star:
          1   0.000000000   0.000000000   0.000000000

          Dielectric constant in cartesian axis 

          (      12.970938301      -0.000000000      -0.000000000 )
          (      -0.000000000      12.970938301      -0.000000000 )
          (       0.000000000      -0.000000000      12.970938301 )

          Effective charges (d Force / dE) in cartesian axis without acoustic sum rule applied (asr)

           atom      1   Si Mean Z*:        0.00002
      Ex  (        0.00002       -0.00000        0.00000 )
      Ey  (        0.00000        0.00002       -0.00000 )
      Ez  (        0.00000       -0.00000        0.00002 )
           atom      2   Si Mean Z*:        0.00002
      Ex  (        0.00002       -0.00000       -0.00000 )
      Ey  (        0.00000        0.00002        0.00000 )
      Ez  (       -0.00000        0.00000        0.00002 )

          Effective charges Sum: Mean:        0.00004
              0.00004        0.00000       -0.00000
             -0.00000        0.00004       -0.00000
             -0.00000       -0.00000        0.00004

          Effective charges (d Force / dE) in cartesian axis with asr applied: 
           atom      1   Si Mean Z*:        0.00000
      E*x (        0.00000        0.00000        0.00000 )
      E*y (        0.00000        0.00000       -0.00000 )
      E*z (        0.00000       -0.00000        0.00000 )
           atom      2   Si Mean Z*:       -0.00000
      E*x (       -0.00000       -0.00000       -0.00000 )
      E*y (       -0.00000       -0.00000        0.00000 )
      E*z (       -0.00000        0.00000       -0.00000 )

          Effective charges (d P / du) in cartesian axis 

           atom      1   Si 
      Px  (       -0.00028       -0.00000       -0.00000 )
      Py  (       -0.00000       -0.00028        0.00000 )
      Pz  (       -0.00000        0.00000       -0.00028 )
           atom      2   Si 
      Px  (       -0.00028        0.00000        0.00000 )
      Py  (        0.00000       -0.00028       -0.00000 )
      Pz  (        0.00000       -0.00000       -0.00028 )

     Diagonalizing the dynamical matrix

     q = (    0.000000000   0.000000000   0.000000000 ) 

 **************************************************************************
     freq (    1) =       0.099091 [THz] =       3.305312 [cm-1]
     freq (    2) =       0.099091 [THz] =       3.305312 [cm-1]
     freq (    3) =       0.099091 [THz] =       3.305312 [cm-1]
     freq (    4) =      15.089749 [THz] =     503.339857 [cm-1]
     freq (    5) =      15.089749 [THz] =     503.339857 [cm-1]
     freq (    6) =      15.089749 [THz] =     503.339857 [cm-1]
 **************************************************************************

     Mode symmetry, O_h (m-3m)  point group:

     freq (   1-   3) =          3.3  [cm-1]   --> T_1u G_15  G_4- I  
     freq (   4-   6) =        503.3  [cm-1]   --> T_2g G_25' G_5+ R  

     Calculation of q =   -0.2500000   0.2500000  -0.2500000
 
     G-vector sticks info
     --------------------
     sticks:   dense  smooth     PW     G-vecs:    dense   smooth      PW
     Sum        1165    1165    379                26565    26565    4909
 
     Using Slab Decomposition
 

     Title: 
     phonons of Si in Diamond structure                                         


     bravais-lattice index     =            2
     lattice parameter (alat)  =      10.3352  a.u.
     unit-cell volume          =     275.9921 (a.u.)^3
     number of atoms/cell      =            2
     number of atomic types    =            1
     number of electrons       =         8.00
     number of Kohn-Sham states=            4
     kinetic-energy cutoff     =      80.0000  Ry
     charge density cutoff     =     320.0000  Ry
     Exchange-correlation= PBE
                           (   1   4   3   4   0   0   0)

     GPU acceleration is ACTIVE.


     celldm(1)=  10.335200  celldm(2)=   0.000000  celldm(3)=   0.000000
     celldm(4)=   0.000000  celldm(5)=   0.000000  celldm(6)=   0.000000

     crystal axes: (cart. coord. in units of alat)
               a(1) = (  -0.500000   0.000000   0.500000 )  
               a(2) = (   0.000000   0.500000   0.500000 )  
               a(3) = (  -0.500000   0.500000   0.000000 )  

     reciprocal axes: (cart. coord. in units 2 pi/alat)
               b(1) = ( -1.000000 -1.000000  1.000000 )  
               b(2) = (  1.000000  1.000000  1.000000 )  
               b(3) = ( -1.000000  1.000000 -1.000000 )  


     PseudoPot. # 1 for Si read from file:
     ../pseudo/Si.pbe-n-kjpaw_psl.1.0.0.UPF
     MD5 check sum: c39c59da582df4a0d9f10159256ea34e
     Pseudo is Projector augmented-wave + core cor, Zval =  4.0
     Generated using &quot;atomic&quot; code by A. Dal Corso  v.6.3
     Shape of augmentation charge: PSQ
     Using radial grid of 1141 points,  6 beta functions with: 
                l(1) =   0
                l(2) =   0
                l(3) =   1
                l(4) =   1
                l(5) =   2
                l(6) =   2
     Q(r) pseudized with 0 coefficients 


     atomic species   valence    mass     pseudopotential
        Si             4.00    28.08500     Si( 1.00)

     48 Sym. Ops., with inversion, found



   Cartesian axes

     site n.     atom                  positions (alat units)
         1           Si  tau(   1) = (   0.0000000   0.0000000   0.0000000  )
         2           Si  tau(   2) = (  -0.2500000   0.2500000   0.2500000  )

     number of k points=  5984

     Number of k-points >= 100: set verbosity='high' to print them.

     Dense  grid:    26565 G-vectors     FFT dimensions: (  48,  48,  48)

     Estimated max dynamical RAM per process >       1.28 GB

     The potential is recalculated from file :
     ./_ph0/pwscf.save/charge-density

     Starting wfcs are    8 atomic wfcs

     Band Structure Calculation
     Davidson diagonalization with overlap

     ethr =  1.25E-10,  avg # of iterations = 13.5

     total cpu time spent up to now is      144.4 secs

     End of band structure calculation

     Number of k-points >= 100: set verbosity='high' to print the bands.

     highest occupied level (ev):     5.9606

     phonons of Si in Diamond structure                                         

     bravais-lattice index     =            2
     lattice parameter (alat)  =      10.3352  a.u.
     unit-cell volume          =     275.9921 (a.u.)^3
     number of atoms/cell      =            2
     number of atomic types    =            1
     kinetic-energy cut-off    =      80.0000  Ry
     charge density cut-off    =     320.0000  Ry
     convergence threshold     =      1.0E-14
     beta                      =       0.7000
     number of iterations used =            4
     Exchange-correlation= PBE
                           (   1   4   3   4   0   0   0)


     celldm(1)=   10.33520  celldm(2)=    0.00000  celldm(3)=    0.00000
     celldm(4)=    0.00000  celldm(5)=    0.00000  celldm(6)=    0.00000

     crystal axes: (cart. coord. in units of alat)
               a(1) = ( -0.5000  0.0000  0.5000 )  
               a(2) = (  0.0000  0.5000  0.5000 )  
               a(3) = ( -0.5000  0.5000  0.0000 )  

     reciprocal axes: (cart. coord. in units 2 pi/alat)
               b(1) = ( -1.0000 -1.0000  1.0000 )  
               b(2) = (  1.0000  1.0000  1.0000 )  
               b(3) = ( -1.0000  1.0000 -1.0000 )  


     Atoms inside the unit cell: 

     Cartesian axes

     site n.  atom      mass           positions (alat units)
        1     Si  28.0850   tau(    1) = (    0.00000    0.00000    0.00000  )
        2     Si  28.0850   tau(    2) = (   -0.25000    0.25000    0.25000  )

     Computing dynamical matrix for 
                    q = (  -0.2500000   0.2500000  -0.2500000 )
 
      6 Sym.Ops. (no q -> -q+G )


     G cutoff =  865.8208  (  26565 G-vectors)     FFT grid: ( 48, 48, 48)
     number of k points=  5984

     PseudoPot. # 1 for Si read from file:
     ../pseudo/Si.pbe-n-kjpaw_psl.1.0.0.UPF
     MD5 check sum: c39c59da582df4a0d9f10159256ea34e
     Pseudo is Projector augmented-wave + core cor, Zval =  4.0
     Generated using &quot;atomic&quot; code by A. Dal Corso  v.6.3
     Shape of augmentation charge: PSQ
     Using radial grid of 1141 points,  6 beta functions with: 
                l(1) =   0
                l(2) =   0
                l(3) =   1
                l(4) =   1
                l(5) =   2
                l(6) =   2
     Q(r) pseudized with 0 coefficients 


     Mode symmetry, C_3v (3m)   point group:


     Atomic displacements:
     There are    4 irreducible representations

     Representation     1      1 modes -  To be done

     Representation     2      1 modes -  To be done

     Representation     3      2 modes -  To be done

     Representation     4      2 modes -  To be done



     Alpha used in Ewald sum =   2.8000
     PHONON       :  24m21.16s CPU  11m32.69s WALL



     Representation #   1 mode #   1

     Self-consistent Calculation

      iter #   1 total cpu time :   730.4 secs   av.it.:   6.3
      thresh= 1.000E-02 alpha_mix =  0.700 |ddv_scf|^2 =  1.792E-04

      iter #   2 total cpu time :   776.5 secs   av.it.:   9.3
      thresh= 1.339E-03 alpha_mix =  0.700 |ddv_scf|^2 =  2.751E-03

      iter #   3 total cpu time :   816.8 secs   av.it.:   7.7
      thresh= 5.245E-03 alpha_mix =  0.700 |ddv_scf|^2 =  1.057E-07

      iter #   4 total cpu time :   864.1 secs   av.it.:   9.9
      thresh= 3.252E-05 alpha_mix =  0.700 |ddv_scf|^2 =  8.186E-09

      iter #   5 total cpu time :   911.5 secs   av.it.:   9.9
      thresh= 9.048E-06 alpha_mix =  0.700 |ddv_scf|^2 =  3.916E-10

      iter #   6 total cpu time :   958.3 secs   av.it.:   9.7
      thresh= 1.979E-06 alpha_mix =  0.700 |ddv_scf|^2 =  5.492E-11

      iter #   7 total cpu time :  1004.3 secs   av.it.:   9.4
      thresh= 7.411E-07 alpha_mix =  0.700 |ddv_scf|^2 =  1.790E-10

      iter #   8 total cpu time :  1046.5 secs   av.it.:   8.3
      thresh= 1.338E-06 alpha_mix =  0.700 |ddv_scf|^2 =  5.284E-12

      iter #   9 total cpu time :  1091.0 secs   av.it.:   9.0
      thresh= 2.299E-07 alpha_mix =  0.700 |ddv_scf|^2 =  9.839E-13

      iter #  10 total cpu time :  1134.9 secs   av.it.:   8.9
      thresh= 9.919E-08 alpha_mix =  0.700 |ddv_scf|^2 =  2.878E-14

      iter #  11 total cpu time :  1181.1 secs   av.it.:   9.6
      thresh= 1.696E-08 alpha_mix =  0.700 |ddv_scf|^2 =  1.562E-15

     End of self-consistent calculation

     Convergence has been achieved 


     Representation #   2 mode #   2

     Self-consistent Calculation

      iter #   1 total cpu time :  1220.3 secs   av.it.:   6.3
      thresh= 1.000E-02 alpha_mix =  0.700 |ddv_scf|^2 =  1.792E-04

      iter #   2 total cpu time :  1266.4 secs   av.it.:   9.3
      thresh= 1.339E-03 alpha_mix =  0.700 |ddv_scf|^2 =  2.751E-03

      iter #   3 total cpu time :  1306.6 secs   av.it.:   7.7
      thresh= 5.245E-03 alpha_mix =  0.700 |ddv_scf|^2 =  1.057E-07

      iter #   4 total cpu time :  1353.9 secs   av.it.:   9.9
      thresh= 3.252E-05 alpha_mix =  0.700 |ddv_scf|^2 =  8.186E-09

      iter #   5 total cpu time :  1401.2 secs   av.it.:   9.9
      thresh= 9.048E-06 alpha_mix =  0.700 |ddv_scf|^2 =  3.916E-10

      iter #   6 total cpu time :  1448.0 secs   av.it.:   9.7
      thresh= 1.979E-06 alpha_mix =  0.700 |ddv_scf|^2 =  5.497E-11

      iter #   7 total cpu time :  1494.0 secs   av.it.:   9.4
      thresh= 7.414E-07 alpha_mix =  0.700 |ddv_scf|^2 =  1.790E-10

      iter #   8 total cpu time :  1536.2 secs   av.it.:   8.3
      thresh= 1.338E-06 alpha_mix =  0.700 |ddv_scf|^2 =  5.282E-12

      iter #   9 total cpu time :  1580.6 secs   av.it.:   9.0
      thresh= 2.298E-07 alpha_mix =  0.700 |ddv_scf|^2 =  9.840E-13

      iter #  10 total cpu time :  1624.4 secs   av.it.:   8.9
      thresh= 9.920E-08 alpha_mix =  0.700 |ddv_scf|^2 =  2.878E-14

      iter #  11 total cpu time :  1670.6 secs   av.it.:   9.6
      thresh= 1.696E-08 alpha_mix =  0.700 |ddv_scf|^2 =  1.562E-15

     End of self-consistent calculation

     Convergence has been achieved 


     Representation #   3 modes #   3   4

     Self-consistent Calculation

      iter #   1 total cpu time :  1740.3 secs   av.it.:   5.6
      thresh= 1.000E-02 alpha_mix =  0.700 |ddv_scf|^2 =  3.931E-08

      iter #   2 total cpu time :  1842.5 secs   av.it.:  11.2
      thresh= 1.983E-05 alpha_mix =  0.700 |ddv_scf|^2 =  3.089E-09

      iter #   3 total cpu time :  1943.2 secs   av.it.:  11.0
      thresh= 5.558E-06 alpha_mix =  0.700 |ddv_scf|^2 =  2.714E-10

      iter #   4 total cpu time :  2042.6 secs   av.it.:  10.8
      thresh= 1.647E-06 alpha_mix =  0.700 |ddv_scf|^2 =  1.131E-11

      iter #   5 total cpu time :  2136.6 secs   av.it.:  10.0
      thresh= 3.363E-07 alpha_mix =  0.700 |ddv_scf|^2 =  4.043E-14

      iter #   6 total cpu time :  2237.3 secs   av.it.:  11.0
      thresh= 2.011E-08 alpha_mix =  0.700 |ddv_scf|^2 =  2.912E-16

     End of self-consistent calculation

     Convergence has been achieved 


     Representation #   4 modes #   5   6

     Self-consistent Calculation

      iter #   1 total cpu time :  2307.3 secs   av.it.:   5.6
      thresh= 1.000E-02 alpha_mix =  0.700 |ddv_scf|^2 =  3.931E-08

      iter #   2 total cpu time :  2409.5 secs   av.it.:  11.2
      thresh= 1.983E-05 alpha_mix =  0.700 |ddv_scf|^2 =  3.089E-09

      iter #   3 total cpu time :  2510.2 secs   av.it.:  11.0
      thresh= 5.558E-06 alpha_mix =  0.700 |ddv_scf|^2 =  2.714E-10

      iter #   4 total cpu time :  2609.7 secs   av.it.:  10.8
      thresh= 1.647E-06 alpha_mix =  0.700 |ddv_scf|^2 =  1.131E-11

      iter #   5 total cpu time :  2703.8 secs   av.it.:  10.0
      thresh= 3.363E-07 alpha_mix =  0.700 |ddv_scf|^2 =  4.036E-14

      iter #   6 total cpu time :  2804.4 secs   av.it.:  11.0
      thresh= 2.009E-08 alpha_mix =  0.700 |ddv_scf|^2 =  2.910E-16

     End of self-consistent calculation

     Convergence has been achieved 
 
     Number of q in the star =    8
     List of q in the star:
          1  -0.250000000   0.250000000  -0.250000000
          2   0.250000000  -0.250000000  -0.250000000
          3   0.250000000  -0.250000000   0.250000000
          4   0.250000000   0.250000000   0.250000000
          5  -0.250000000  -0.250000000  -0.250000000
          6  -0.250000000  -0.250000000   0.250000000
          7  -0.250000000   0.250000000   0.250000000
          8   0.250000000   0.250000000  -0.250000000

     Diagonalizing the dynamical matrix

     q = (   -0.250000000   0.250000000  -0.250000000 ) 

 **************************************************************************
     freq (    1) =       2.848270 [THz] =      95.008054 [cm-1]
     freq (    2) =       2.848270 [THz] =      95.008054 [cm-1]
     freq (    3) =       6.755087 [THz] =     225.325445 [cm-1]
     freq (    4) =      14.222129 [THz] =     474.399157 [cm-1]
     freq (    5) =      14.515421 [THz] =     484.182317 [cm-1]
     freq (    6) =      14.515421 [THz] =     484.182317 [cm-1]
 **************************************************************************

     Mode symmetry, C_3v (3m)   point group:

     freq (   1-   2) =         95.0  [cm-1]   --> E    L_3           
     freq (   3-   3) =        225.3  [cm-1]   --> A_1  L_1           
     freq (   4-   4) =        474.4  [cm-1]   --> A_1  L_1           
     freq (   5-   6) =        484.2  [cm-1]   --> E    L_3           

     Calculation of q =    0.5000000  -0.5000000   0.5000000
 
     G-vector sticks info
     --------------------
     sticks:   dense  smooth     PW     G-vecs:    dense   smooth      PW
     Sum        1165    1165    397                26565    26565    5161
 
     Using Slab Decomposition
 

     Title: 
     phonons of Si in Diamond structure                                         


     bravais-lattice index     =            2
     lattice parameter (alat)  =      10.3352  a.u.
     unit-cell volume          =     275.9921 (a.u.)^3
     number of atoms/cell      =            2
     number of atomic types    =            1
     number of electrons       =         8.00
     number of Kohn-Sham states=            4
     kinetic-energy cutoff     =      80.0000  Ry
     charge density cutoff     =     320.0000  Ry
     Exchange-correlation= PBE
                           (   1   4   3   4   0   0   0)

     GPU acceleration is ACTIVE.


     celldm(1)=  10.335200  celldm(2)=   0.000000  celldm(3)=   0.000000
     celldm(4)=   0.000000  celldm(5)=   0.000000  celldm(6)=   0.000000

     crystal axes: (cart. coord. in units of alat)
               a(1) = (  -0.500000   0.000000   0.500000 )  
               a(2) = (   0.000000   0.500000   0.500000 )  
               a(3) = (  -0.500000   0.500000   0.000000 )  

     reciprocal axes: (cart. coord. in units 2 pi/alat)
               b(1) = ( -1.000000 -1.000000  1.000000 )  
               b(2) = (  1.000000  1.000000  1.000000 )  
               b(3) = ( -1.000000  1.000000 -1.000000 )  


     PseudoPot. # 1 for Si read from file:
     ../pseudo/Si.pbe-n-kjpaw_psl.1.0.0.UPF
     MD5 check sum: c39c59da582df4a0d9f10159256ea34e
     Pseudo is Projector augmented-wave + core cor, Zval =  4.0
     Generated using &quot;atomic&quot; code by A. Dal Corso  v.6.3
     Shape of augmentation charge: PSQ
     Using radial grid of 1141 points,  6 beta functions with: 
                l(1) =   0
                l(2) =   0
                l(3) =   1
                l(4) =   1
                l(5) =   2
                l(6) =   2
     Q(r) pseudized with 0 coefficients 


     atomic species   valence    mass     pseudopotential
        Si             4.00    28.08500     Si( 1.00)

     48 Sym. Ops., with inversion, found



   Cartesian axes

     site n.     atom                  positions (alat units)
         1           Si  tau(   1) = (   0.0000000   0.0000000   0.0000000  )
         2           Si  tau(   2) = (  -0.2500000   0.2500000   0.2500000  )

     number of k points=  2992

     Number of k-points >= 100: set verbosity='high' to print them.

     Dense  grid:    26565 G-vectors     FFT dimensions: (  48,  48,  48)

     Estimated max dynamical RAM per process >     699.65 MB

     The potential is recalculated from file :
     ./_ph0/pwscf.save/charge-density

     Starting wfcs are    8 atomic wfcs

     Band Structure Calculation
     Davidson diagonalization with overlap

     ethr =  1.25E-10,  avg # of iterations = 13.5

     total cpu time spent up to now is      216.5 secs

     End of band structure calculation

     Number of k-points >= 100: set verbosity='high' to print the bands.

     highest occupied level (ev):     5.9606

     phonons of Si in Diamond structure                                         

     bravais-lattice index     =            2
     lattice parameter (alat)  =      10.3352  a.u.
     unit-cell volume          =     275.9921 (a.u.)^3
     number of atoms/cell      =            2
     number of atomic types    =            1
     kinetic-energy cut-off    =      80.0000  Ry
     charge density cut-off    =     320.0000  Ry
     convergence threshold     =      1.0E-14
     beta                      =       0.7000
     number of iterations used =            4
     Exchange-correlation= PBE
                           (   1   4   3   4   0   0   0)


     celldm(1)=   10.33520  celldm(2)=    0.00000  celldm(3)=    0.00000
     celldm(4)=    0.00000  celldm(5)=    0.00000  celldm(6)=    0.00000

     crystal axes: (cart. coord. in units of alat)
               a(1) = ( -0.5000  0.0000  0.5000 )  
               a(2) = (  0.0000  0.5000  0.5000 )  
               a(3) = ( -0.5000  0.5000  0.0000 )  

     reciprocal axes: (cart. coord. in units 2 pi/alat)
               b(1) = ( -1.0000 -1.0000  1.0000 )  
               b(2) = (  1.0000  1.0000  1.0000 )  
               b(3) = ( -1.0000  1.0000 -1.0000 )  


     Atoms inside the unit cell: 

     Cartesian axes

     site n.  atom      mass           positions (alat units)
        1     Si  28.0850   tau(    1) = (    0.00000    0.00000    0.00000  )
        2     Si  28.0850   tau(    2) = (   -0.25000    0.25000    0.25000  )

     Computing dynamical matrix for 
                    q = (   0.5000000  -0.5000000   0.5000000 )
 
     13 Sym.Ops. (with q -> -q+G )


     G cutoff =  865.8208  (  26565 G-vectors)     FFT grid: ( 48, 48, 48)
     number of k points=  2992

     PseudoPot. # 1 for Si read from file:
     ../pseudo/Si.pbe-n-kjpaw_psl.1.0.0.UPF
     MD5 check sum: c39c59da582df4a0d9f10159256ea34e
     Pseudo is Projector augmented-wave + core cor, Zval =  4.0
     Generated using &quot;atomic&quot; code by A. Dal Corso  v.6.3
     Shape of augmentation charge: PSQ
     Using radial grid of 1141 points,  6 beta functions with: 
                l(1) =   0
                l(2) =   0
                l(3) =   1
                l(4) =   1
                l(5) =   2
                l(6) =   2
     Q(r) pseudized with 0 coefficients 



     Atomic displacements:
     There are    4 irreducible representations

     Representation     1      1 modes -  To be done

     Representation     2      1 modes -  To be done

     Representation     3      2 modes -  To be done

     Representation     4      2 modes -  To be done



     Alpha used in Ewald sum =   2.8000
     PHONON       :      1h 9m CPU  48m50.50s WALL



     Representation #   1 mode #   1

     Self-consistent Calculation

      iter #   1 total cpu time :  2948.5 secs   av.it.:   5.3
      thresh= 1.000E-02 alpha_mix =  0.700 |ddv_scf|^2 =  1.812E-06

      iter #   2 total cpu time :  2973.0 secs   av.it.:  10.1
      thresh= 1.346E-04 alpha_mix =  0.700 |ddv_scf|^2 =  1.640E-06

      iter #   3 total cpu time :  2996.3 secs   av.it.:   9.4
      thresh= 1.281E-04 alpha_mix =  0.700 |ddv_scf|^2 =  3.063E-09

      iter #   4 total cpu time :  3019.4 secs   av.it.:   9.4
      thresh= 5.534E-06 alpha_mix =  0.700 |ddv_scf|^2 =  9.346E-11

      iter #   5 total cpu time :  3041.0 secs   av.it.:   8.6
      thresh= 9.667E-07 alpha_mix =  0.700 |ddv_scf|^2 =  4.131E-13

      iter #   6 total cpu time :  3064.2 secs   av.it.:   9.5
      thresh= 6.427E-08 alpha_mix =  0.700 |ddv_scf|^2 =  7.160E-15

     End of self-consistent calculation

     Convergence has been achieved 


     Representation #   2 mode #   2

     Self-consistent Calculation

      iter #   1 total cpu time :  3084.9 secs   av.it.:   6.4
      thresh= 1.000E-02 alpha_mix =  0.700 |ddv_scf|^2 =  2.474E-05

      iter #   2 total cpu time :  3109.6 secs   av.it.:  10.1
      thresh= 4.974E-04 alpha_mix =  0.700 |ddv_scf|^2 =  7.736E-05

      iter #   3 total cpu time :  3132.4 secs   av.it.:   9.1
      thresh= 8.795E-04 alpha_mix =  0.700 |ddv_scf|^2 =  1.008E-08

      iter #   4 total cpu time :  3156.5 secs   av.it.:  10.0
      thresh= 1.004E-05 alpha_mix =  0.700 |ddv_scf|^2 =  8.121E-10

      iter #   5 total cpu time :  3181.1 secs   av.it.:  10.2
      thresh= 2.850E-06 alpha_mix =  0.700 |ddv_scf|^2 =  4.425E-11

      iter #   6 total cpu time :  3204.9 secs   av.it.:   9.8
      thresh= 6.652E-07 alpha_mix =  0.700 |ddv_scf|^2 =  8.874E-13

      iter #   7 total cpu time :  3228.0 secs   av.it.:   9.3
      thresh= 9.420E-08 alpha_mix =  0.700 |ddv_scf|^2 =  1.911E-15

     End of self-consistent calculation

     Convergence has been achieved 


     Representation #   3 modes #   3   4

     Self-consistent Calculation

      iter #   1 total cpu time :  3264.5 secs   av.it.:   5.5
      thresh= 1.000E-02 alpha_mix =  0.700 |ddv_scf|^2 =  6.593E-08

      iter #   2 total cpu time :  3315.9 secs   av.it.:  11.1
      thresh= 2.568E-05 alpha_mix =  0.700 |ddv_scf|^2 =  5.854E-09

      iter #   3 total cpu time :  3366.6 secs   av.it.:  10.9
      thresh= 7.651E-06 alpha_mix =  0.700 |ddv_scf|^2 =  3.811E-10

      iter #   4 total cpu time :  3415.3 secs   av.it.:  10.3
      thresh= 1.952E-06 alpha_mix =  0.700 |ddv_scf|^2 =  1.246E-11

      iter #   5 total cpu time :  3460.7 secs   av.it.:   9.3
      thresh= 3.529E-07 alpha_mix =  0.700 |ddv_scf|^2 =  2.433E-15

     End of self-consistent calculation

     Convergence has been achieved 


     Representation #   4 modes #   5   6

     Self-consistent Calculation

      iter #   1 total cpu time :  3496.0 secs   av.it.:   5.2
      thresh= 1.000E-02 alpha_mix =  0.700 |ddv_scf|^2 =  2.550E-08

      iter #   2 total cpu time :  3546.0 secs   av.it.:  10.6
      thresh= 1.597E-05 alpha_mix =  0.700 |ddv_scf|^2 =  2.004E-09

      iter #   3 total cpu time :  3594.9 secs   av.it.:  10.4
      thresh= 4.476E-06 alpha_mix =  0.700 |ddv_scf|^2 =  8.294E-11

      iter #   4 total cpu time :  3642.8 secs   av.it.:  10.1
      thresh= 9.107E-07 alpha_mix =  0.700 |ddv_scf|^2 =  4.293E-12

      iter #   5 total cpu time :  3689.7 secs   av.it.:   9.7
      thresh= 2.072E-07 alpha_mix =  0.700 |ddv_scf|^2 =  3.952E-15

     End of self-consistent calculation

     Convergence has been achieved 
 
     Number of q in the star =    4
     List of q in the star:
          1   0.500000000  -0.500000000   0.500000000
          2   0.500000000   0.500000000   0.500000000
          3  -0.500000000   0.500000000   0.500000000
          4   0.500000000   0.500000000  -0.500000000

     Diagonalizing the dynamical matrix

     q = (    0.500000000  -0.500000000   0.500000000 ) 

 **************************************************************************
     freq (    1) =       3.345738 [THz] =     111.601810 [cm-1]
     freq (    2) =       3.345738 [THz] =     111.601810 [cm-1]
     freq (    3) =      11.105523 [THz] =     370.440388 [cm-1]
     freq (    4) =      11.984941 [THz] =     399.774595 [cm-1]
     freq (    5) =      14.311247 [THz] =     477.371809 [cm-1]
     freq (    6) =      14.311247 [THz] =     477.371809 [cm-1]
 **************************************************************************

     Calculation of q =    0.0000000   0.5000000   0.0000000
 
     G-vector sticks info
     --------------------
     sticks:   dense  smooth     PW     G-vecs:    dense   smooth      PW
     Sum        1165    1165    379                26565    26565    4909
 
     Using Slab Decomposition
 

     Title: 
     phonons of Si in Diamond structure                                         


     bravais-lattice index     =            2
     lattice parameter (alat)  =      10.3352  a.u.
     unit-cell volume          =     275.9921 (a.u.)^3
     number of atoms/cell      =            2
     number of atomic types    =            1
     number of electrons       =         8.00
     number of Kohn-Sham states=            4
     kinetic-energy cutoff     =      80.0000  Ry
     charge density cutoff     =     320.0000  Ry
     Exchange-correlation= PBE
                           (   1   4   3   4   0   0   0)

     GPU acceleration is ACTIVE.


     celldm(1)=  10.335200  celldm(2)=   0.000000  celldm(3)=   0.000000
     celldm(4)=   0.000000  celldm(5)=   0.000000  celldm(6)=   0.000000

     crystal axes: (cart. coord. in units of alat)
               a(1) = (  -0.500000   0.000000   0.500000 )  
               a(2) = (   0.000000   0.500000   0.500000 )  
               a(3) = (  -0.500000   0.500000   0.000000 )  

     reciprocal axes: (cart. coord. in units 2 pi/alat)
               b(1) = ( -1.000000 -1.000000  1.000000 )  
               b(2) = (  1.000000  1.000000  1.000000 )  
               b(3) = ( -1.000000  1.000000 -1.000000 )  


     PseudoPot. # 1 for Si read from file:
     ../pseudo/Si.pbe-n-kjpaw_psl.1.0.0.UPF
     MD5 check sum: c39c59da582df4a0d9f10159256ea34e
     Pseudo is Projector augmented-wave + core cor, Zval =  4.0
     Generated using &quot;atomic&quot; code by A. Dal Corso  v.6.3
     Shape of augmentation charge: PSQ
     Using radial grid of 1141 points,  6 beta functions with: 
                l(1) =   0
                l(2) =   0
                l(3) =   1
                l(4) =   1
                l(5) =   2
                l(6) =   2
     Q(r) pseudized with 0 coefficients 


     atomic species   valence    mass     pseudopotential
        Si             4.00    28.08500     Si( 1.00)

     48 Sym. Ops., with inversion, found



   Cartesian axes

     site n.     atom                  positions (alat units)
         1           Si  tau(   1) = (   0.0000000   0.0000000   0.0000000  )
         2           Si  tau(   2) = (  -0.2500000   0.2500000   0.2500000  )

     number of k points=  4352

     Number of k-points >= 100: set verbosity='high' to print them.

     Dense  grid:    26565 G-vectors     FFT dimensions: (  48,  48,  48)

     Estimated max dynamical RAM per process >     976.47 MB

     The potential is recalculated from file :
     ./_ph0/pwscf.save/charge-density

     Starting wfcs are    8 atomic wfcs

     Band Structure Calculation
     Davidson diagonalization with overlap

     ethr =  1.25E-10,  avg # of iterations = 13.5

     total cpu time spent up to now is      321.1 secs

     End of band structure calculation

     Number of k-points >= 100: set verbosity='high' to print the bands.

     highest occupied level (ev):     5.9606

     phonons of Si in Diamond structure                                         

     bravais-lattice index     =            2
     lattice parameter (alat)  =      10.3352  a.u.
     unit-cell volume          =     275.9921 (a.u.)^3
     number of atoms/cell      =            2
     number of atomic types    =            1
     kinetic-energy cut-off    =      80.0000  Ry
     charge density cut-off    =     320.0000  Ry
     convergence threshold     =      1.0E-14
     beta                      =       0.7000
     number of iterations used =            4
     Exchange-correlation= PBE
                           (   1   4   3   4   0   0   0)


     celldm(1)=   10.33520  celldm(2)=    0.00000  celldm(3)=    0.00000
     celldm(4)=    0.00000  celldm(5)=    0.00000  celldm(6)=    0.00000

     crystal axes: (cart. coord. in units of alat)
               a(1) = ( -0.5000  0.0000  0.5000 )  
               a(2) = (  0.0000  0.5000  0.5000 )  
               a(3) = ( -0.5000  0.5000  0.0000 )  

     reciprocal axes: (cart. coord. in units 2 pi/alat)
               b(1) = ( -1.0000 -1.0000  1.0000 )  
               b(2) = (  1.0000  1.0000  1.0000 )  
               b(3) = ( -1.0000  1.0000 -1.0000 )  


     Atoms inside the unit cell: 

     Cartesian axes

     site n.  atom      mass           positions (alat units)
        1     Si  28.0850   tau(    1) = (    0.00000    0.00000    0.00000  )
        2     Si  28.0850   tau(    2) = (   -0.25000    0.25000    0.25000  )

     Computing dynamical matrix for 
                    q = (   0.0000000   0.5000000   0.0000000 )
 
      8 Sym.Ops. (no q -> -q+G )


     G cutoff =  865.8208  (  26565 G-vectors)     FFT grid: ( 48, 48, 48)
     number of k points=  4352

     PseudoPot. # 1 for Si read from file:
     ../pseudo/Si.pbe-n-kjpaw_psl.1.0.0.UPF
     MD5 check sum: c39c59da582df4a0d9f10159256ea34e
     Pseudo is Projector augmented-wave + core cor, Zval =  4.0
     Generated using &quot;atomic&quot; code by A. Dal Corso  v.6.3
     Shape of augmentation charge: PSQ
     Using radial grid of 1141 points,  6 beta functions with: 
                l(1) =   0
                l(2) =   0
                l(3) =   1
                l(4) =   1
                l(5) =   2
                l(6) =   2
     Q(r) pseudized with 0 coefficients 


     Mode symmetry, C_4v (4mm)  point group:


     Atomic displacements:
     There are    4 irreducible representations

     Representation     1      1 modes -  To be done

     Representation     2      1 modes -  To be done

     Representation     3      2 modes -  To be done

     Representation     4      2 modes -  To be done



     Alpha used in Ewald sum =   2.8000
     PHONON       :      1h34m CPU      1h 4m WALL



     Representation #   1 mode #   1

     Self-consistent Calculation

      iter #   1 total cpu time :  3895.3 secs   av.it.:   6.4
      thresh= 1.000E-02 alpha_mix =  0.700 |ddv_scf|^2 =  2.157E-04

      iter #   2 total cpu time :  3929.5 secs   av.it.:   9.5
      thresh= 1.469E-03 alpha_mix =  0.700 |ddv_scf|^2 =  2.888E-03

      iter #   3 total cpu time :  3959.6 secs   av.it.:   7.9
      thresh= 5.374E-03 alpha_mix =  0.700 |ddv_scf|^2 =  7.021E-09

      iter #   4 total cpu time :  3993.7 secs   av.it.:   9.8
      thresh= 8.379E-06 alpha_mix =  0.700 |ddv_scf|^2 =  1.182E-09

      iter #   5 total cpu time :  4027.0 secs   av.it.:   9.5
      thresh= 3.439E-06 alpha_mix =  0.700 |ddv_scf|^2 =  5.261E-11

      iter #   6 total cpu time :  4061.3 secs   av.it.:   9.8
      thresh= 7.253E-07 alpha_mix =  0.700 |ddv_scf|^2 =  1.611E-12

      iter #   7 total cpu time :  4093.6 secs   av.it.:   9.1
      thresh= 1.269E-07 alpha_mix =  0.700 |ddv_scf|^2 =  2.050E-14

      iter #   8 total cpu time :  4125.6 secs   av.it.:   8.9
      thresh= 1.432E-08 alpha_mix =  0.700 |ddv_scf|^2 =  2.910E-16

     End of self-consistent calculation

     Convergence has been achieved 


     Representation #   2 mode #   2

     Self-consistent Calculation

      iter #   1 total cpu time :  4151.2 secs   av.it.:   5.4
      thresh= 1.000E-02 alpha_mix =  0.700 |ddv_scf|^2 =  3.797E-07

      iter #   2 total cpu time :  4186.8 secs   av.it.:  10.4
      thresh= 6.162E-05 alpha_mix =  0.700 |ddv_scf|^2 =  9.860E-08

      iter #   3 total cpu time :  4221.9 secs   av.it.:  10.2
      thresh= 3.140E-05 alpha_mix =  0.700 |ddv_scf|^2 =  3.148E-09

      iter #   4 total cpu time :  4256.3 secs   av.it.:   9.9
      thresh= 5.611E-06 alpha_mix =  0.700 |ddv_scf|^2 =  1.368E-10

      iter #   5 total cpu time :  4290.8 secs   av.it.:   9.9
      thresh= 1.170E-06 alpha_mix =  0.700 |ddv_scf|^2 =  7.283E-12

      iter #   6 total cpu time :  4323.3 secs   av.it.:   9.1
      thresh= 2.699E-07 alpha_mix =  0.700 |ddv_scf|^2 =  4.793E-15

     End of self-consistent calculation

     Convergence has been achieved 


     Representation #   3 modes #   3   4

     Self-consistent Calculation

      iter #   1 total cpu time :  4374.6 secs   av.it.:   5.6
      thresh= 1.000E-02 alpha_mix =  0.700 |ddv_scf|^2 =  5.841E-08

      iter #   2 total cpu time :  4449.3 secs   av.it.:  11.2
      thresh= 2.417E-05 alpha_mix =  0.700 |ddv_scf|^2 =  7.337E-09

      iter #   3 total cpu time :  4522.9 secs   av.it.:  11.0
      thresh= 8.566E-06 alpha_mix =  0.700 |ddv_scf|^2 =  4.641E-10

      iter #   4 total cpu time :  4595.3 secs   av.it.:  10.8
      thresh= 2.154E-06 alpha_mix =  0.700 |ddv_scf|^2 =  1.470E-11

      iter #   5 total cpu time :  4662.8 secs   av.it.:   9.8
      thresh= 3.834E-07 alpha_mix =  0.700 |ddv_scf|^2 =  9.831E-15

     End of self-consistent calculation

     Convergence has been achieved 


     Representation #   4 modes #   5   6

     Self-consistent Calculation

      iter #   1 total cpu time :  4715.0 secs   av.it.:   5.7
      thresh= 1.000E-02 alpha_mix =  0.700 |ddv_scf|^2 =  7.742E-08

      iter #   2 total cpu time :  4789.8 secs   av.it.:  11.2
      thresh= 2.783E-05 alpha_mix =  0.700 |ddv_scf|^2 =  1.023E-08

      iter #   3 total cpu time :  4863.3 secs   av.it.:  11.0
      thresh= 1.011E-05 alpha_mix =  0.700 |ddv_scf|^2 =  4.834E-10

      iter #   4 total cpu time :  4935.4 secs   av.it.:  10.7
      thresh= 2.199E-06 alpha_mix =  0.700 |ddv_scf|^2 =  1.514E-11

      iter #   5 total cpu time :  5002.6 secs   av.it.:   9.7
      thresh= 3.890E-07 alpha_mix =  0.700 |ddv_scf|^2 =  1.061E-14

      iter #   6 total cpu time :  5075.2 secs   av.it.:  10.8
      thresh= 1.030E-08 alpha_mix =  0.700 |ddv_scf|^2 =  2.107E-16

     End of self-consistent calculation

     Convergence has been achieved 
 
     Number of q in the star =    6
     List of q in the star:
          1   0.000000000   0.500000000   0.000000000
          2   0.000000000  -0.500000000   0.000000000
          3   0.500000000   0.000000000   0.000000000
          4   0.000000000   0.000000000   0.500000000
          5   0.000000000   0.000000000  -0.500000000
          6  -0.500000000   0.000000000   0.000000000

     Diagonalizing the dynamical matrix

     q = (    0.000000000   0.500000000   0.000000000 ) 

 **************************************************************************
     freq (    1) =       3.804474 [THz] =     126.903600 [cm-1]
     freq (    2) =       3.804474 [THz] =     126.903600 [cm-1]
     freq (    3) =       7.065105 [THz] =     235.666545 [cm-1]
     freq (    4) =      13.849923 [THz] =     461.983714 [cm-1]
     freq (    5) =      13.849923 [THz] =     461.983714 [cm-1]
     freq (    6) =      14.462486 [THz] =     482.416591 [cm-1]
 **************************************************************************

     Mode symmetry, C_4v (4mm)  point group:

     freq (   1-   2) =        126.9  [cm-1]   --> E    G_5 D_5       
     freq (   3-   3) =        235.7  [cm-1]   --> A_1  G_1 D_1       
     freq (   4-   5) =        462.0  [cm-1]   --> E    G_5 D_5       
     freq (   6-   6) =        482.4  [cm-1]   --> B_2  G_4 D_2'      

     Calculation of q =    0.7500000  -0.2500000   0.7500000
 
     G-vector sticks info
     --------------------
     sticks:   dense  smooth     PW     G-vecs:    dense   smooth      PW
     Sum        1165    1165    409                26565    26565    5329
 
     Using Slab Decomposition
 

     Title: 
     phonons of Si in Diamond structure                                         


     bravais-lattice index     =            2
     lattice parameter (alat)  =      10.3352  a.u.
     unit-cell volume          =     275.9921 (a.u.)^3
     number of atoms/cell      =            2
     number of atomic types    =            1
     number of electrons       =         8.00
     number of Kohn-Sham states=            4
     kinetic-energy cutoff     =      80.0000  Ry
     charge density cutoff     =     320.0000  Ry
     Exchange-correlation= PBE
                           (   1   4   3   4   0   0   0)

     GPU acceleration is ACTIVE.


     celldm(1)=  10.335200  celldm(2)=   0.000000  celldm(3)=   0.000000
     celldm(4)=   0.000000  celldm(5)=   0.000000  celldm(6)=   0.000000

     crystal axes: (cart. coord. in units of alat)
               a(1) = (  -0.500000   0.000000   0.500000 )  
               a(2) = (   0.000000   0.500000   0.500000 )  
               a(3) = (  -0.500000   0.500000   0.000000 )  

     reciprocal axes: (cart. coord. in units 2 pi/alat)
               b(1) = ( -1.000000 -1.000000  1.000000 )  
               b(2) = (  1.000000  1.000000  1.000000 )  
               b(3) = ( -1.000000  1.000000 -1.000000 )  


     PseudoPot. # 1 for Si read from file:
     ../pseudo/Si.pbe-n-kjpaw_psl.1.0.0.UPF
     MD5 check sum: c39c59da582df4a0d9f10159256ea34e
     Pseudo is Projector augmented-wave + core cor, Zval =  4.0
     Generated using &quot;atomic&quot; code by A. Dal Corso  v.6.3
     Shape of augmentation charge: PSQ
     Using radial grid of 1141 points,  6 beta functions with: 
                l(1) =   0
                l(2) =   0
                l(3) =   1
                l(4) =   1
                l(5) =   2
                l(6) =   2
     Q(r) pseudized with 0 coefficients 


     atomic species   valence    mass     pseudopotential
        Si             4.00    28.08500     Si( 1.00)

     48 Sym. Ops., with inversion, found



   Cartesian axes

     site n.     atom                  positions (alat units)
         1           Si  tau(   1) = (   0.0000000   0.0000000   0.0000000  )
         2           Si  tau(   2) = (  -0.2500000   0.2500000   0.2500000  )

     number of k points= 16896

     Number of k-points >= 100: set verbosity='high' to print them.

     Dense  grid:    26565 G-vectors     FFT dimensions: (  48,  48,  48)

     Estimated max dynamical RAM per process >       3.45 GB

     The potential is recalculated from file :
     ./_ph0/pwscf.save/charge-density

     Starting wfcs are    8 atomic wfcs

     Band Structure Calculation
     Davidson diagonalization with overlap

     ethr =  1.25E-10,  avg # of iterations = 13.4

     total cpu time spent up to now is      728.4 secs

     End of band structure calculation

     Number of k-points >= 100: set verbosity='high' to print the bands.

     highest occupied level (ev):     5.9606

     phonons of Si in Diamond structure                                         

     bravais-lattice index     =            2
     lattice parameter (alat)  =      10.3352  a.u.
     unit-cell volume          =     275.9921 (a.u.)^3
     number of atoms/cell      =            2
     number of atomic types    =            1
     kinetic-energy cut-off    =      80.0000  Ry
     charge density cut-off    =     320.0000  Ry
     convergence threshold     =      1.0E-14
     beta                      =       0.7000
     number of iterations used =            4
     Exchange-correlation= PBE
                           (   1   4   3   4   0   0   0)


     celldm(1)=   10.33520  celldm(2)=    0.00000  celldm(3)=    0.00000
     celldm(4)=    0.00000  celldm(5)=    0.00000  celldm(6)=    0.00000

     crystal axes: (cart. coord. in units of alat)
               a(1) = ( -0.5000  0.0000  0.5000 )  
               a(2) = (  0.0000  0.5000  0.5000 )  
               a(3) = ( -0.5000  0.5000  0.0000 )  

     reciprocal axes: (cart. coord. in units 2 pi/alat)
               b(1) = ( -1.0000 -1.0000  1.0000 )  
               b(2) = (  1.0000  1.0000  1.0000 )  
               b(3) = ( -1.0000  1.0000 -1.0000 )  


     Atoms inside the unit cell: 

     Cartesian axes

     site n.  atom      mass           positions (alat units)
        1     Si  28.0850   tau(    1) = (    0.00000    0.00000    0.00000  )
        2     Si  28.0850   tau(    2) = (   -0.25000    0.25000    0.25000  )

     Computing dynamical matrix for 
                    q = (   0.7500000  -0.2500000   0.7500000 )
 
      2 Sym.Ops. (no q -> -q+G )


     G cutoff =  865.8208  (  26565 G-vectors)     FFT grid: ( 48, 48, 48)
     number of k points= 16896

     PseudoPot. # 1 for Si read from file:
     ../pseudo/Si.pbe-n-kjpaw_psl.1.0.0.UPF
     MD5 check sum: c39c59da582df4a0d9f10159256ea34e
     Pseudo is Projector augmented-wave + core cor, Zval =  4.0
     Generated using &quot;atomic&quot; code by A. Dal Corso  v.6.3
     Shape of augmentation charge: PSQ
     Using radial grid of 1141 points,  6 beta functions with: 
                l(1) =   0
                l(2) =   0
                l(3) =   1
                l(4) =   1
                l(5) =   2
                l(6) =   2
     Q(r) pseudized with 0 coefficients 


     Mode symmetry, C_s (m)     point group:


     Atomic displacements:
     There are    6 irreducible representations

     Representation     1      1 modes -  To be done

     Representation     2      1 modes -  To be done

     Representation     3      1 modes -  To be done

     Representation     4      1 modes -  To be done

     Representation     5      1 modes -  To be done

     Representation     6      1 modes -  To be done



     Alpha used in Ewald sum =   2.8000
     PHONON       :      2h38m CPU      1h36m WALL



     Representation #   1 mode #   1

     Self-consistent Calculation

      iter #   1 total cpu time :  5865.3 secs   av.it.:   6.2
      thresh= 1.000E-02 alpha_mix =  0.700 |ddv_scf|^2 =  8.831E-06

      iter #   2 total cpu time :  6002.4 secs   av.it.:  10.4
      thresh= 2.972E-04 alpha_mix =  0.700 |ddv_scf|^2 =  2.534E-05

      iter #   3 total cpu time :  6128.7 secs   av.it.:   9.3
      thresh= 5.034E-04 alpha_mix =  0.700 |ddv_scf|^2 =  1.030E-07

      iter #   4 total cpu time :  6260.7 secs   av.it.:   9.9
      thresh= 3.210E-05 alpha_mix =  0.700 |ddv_scf|^2 =  3.885E-09

      iter #   5 total cpu time :  6393.9 secs   av.it.:  10.1
      thresh= 6.233E-06 alpha_mix =  0.700 |ddv_scf|^2 =  3.112E-10

      iter #   6 total cpu time :  6529.4 secs   av.it.:  10.3
      thresh= 1.764E-06 alpha_mix =  0.700 |ddv_scf|^2 =  2.830E-11

      iter #   7 total cpu time :  6661.7 secs   av.it.:  10.0
      thresh= 5.319E-07 alpha_mix =  0.700 |ddv_scf|^2 =  1.139E-12

      iter #   8 total cpu time :  6792.2 secs   av.it.:   9.8
      thresh= 1.067E-07 alpha_mix =  0.700 |ddv_scf|^2 =  2.063E-13

      iter #   9 total cpu time :  6927.4 secs   av.it.:  10.3
      thresh= 4.543E-08 alpha_mix =  0.700 |ddv_scf|^2 =  3.898E-13

      iter #  10 total cpu time :  7053.8 secs   av.it.:   9.3
      thresh= 6.243E-08 alpha_mix =  0.700 |ddv_scf|^2 =  8.740E-15

     End of self-consistent calculation

     Convergence has been achieved 


     Representation #   2 mode #   2

     Self-consistent Calculation

      iter #   1 total cpu time :  7159.8 secs   av.it.:   6.1
      thresh= 1.000E-02 alpha_mix =  0.700 |ddv_scf|^2 =  6.000E-06

      iter #   2 total cpu time :  7297.0 secs   av.it.:  10.4
      thresh= 2.450E-04 alpha_mix =  0.700 |ddv_scf|^2 =  1.711E-05

      iter #   3 total cpu time :  7423.3 secs   av.it.:   9.3
      thresh= 4.136E-04 alpha_mix =  0.700 |ddv_scf|^2 =  6.602E-08

      iter #   4 total cpu time :  7556.7 secs   av.it.:  10.1
      thresh= 2.569E-05 alpha_mix =  0.700 |ddv_scf|^2 =  4.463E-09

      iter #   5 total cpu time :  7689.8 secs   av.it.:  10.1
      thresh= 6.681E-06 alpha_mix =  0.700 |ddv_scf|^2 =  5.281E-10

      iter #   6 total cpu time :  7823.9 secs   av.it.:  10.2
      thresh= 2.298E-06 alpha_mix =  0.700 |ddv_scf|^2 =  2.973E-11

      iter #   7 total cpu time :  7956.0 secs   av.it.:  10.0
      thresh= 5.452E-07 alpha_mix =  0.700 |ddv_scf|^2 =  1.306E-12

      iter #   8 total cpu time :  8090.4 secs   av.it.:  10.2
      thresh= 1.143E-07 alpha_mix =  0.700 |ddv_scf|^2 =  6.015E-13

      iter #   9 total cpu time :  8222.0 secs   av.it.:   9.9
      thresh= 7.756E-08 alpha_mix =  0.700 |ddv_scf|^2 =  3.940E-13

      iter #  10 total cpu time :  8351.4 secs   av.it.:   9.7
      thresh= 6.277E-08 alpha_mix =  0.700 |ddv_scf|^2 =  1.307E-14

      iter #  11 total cpu time :  8484.4 secs   av.it.:  10.1
      thresh= 1.143E-08 alpha_mix =  0.700 |ddv_scf|^2 =  1.104E-15

     End of self-consistent calculation

     Convergence has been achieved 


     Representation #   3 mode #   3

     Self-consistent Calculation

      iter #   1 total cpu time :  8589.0 secs   av.it.:   6.1
      thresh= 1.000E-02 alpha_mix =  0.700 |ddv_scf|^2 =  4.535E-06

      iter #   2 total cpu time :  8725.3 secs   av.it.:  10.4
      thresh= 2.130E-04 alpha_mix =  0.700 |ddv_scf|^2 =  1.138E-05

      iter #   3 total cpu time :  8851.4 secs   av.it.:   9.3
      thresh= 3.373E-04 alpha_mix =  0.700 |ddv_scf|^2 =  1.211E-07

      iter #   4 total cpu time :  8981.7 secs   av.it.:   9.8
      thresh= 3.479E-05 alpha_mix =  0.700 |ddv_scf|^2 =  4.191E-09

      iter #   5 total cpu time :  9115.1 secs   av.it.:  10.2
      thresh= 6.474E-06 alpha_mix =  0.700 |ddv_scf|^2 =  7.943E-10

      iter #   6 total cpu time :  9247.9 secs   av.it.:  10.1
      thresh= 2.818E-06 alpha_mix =  0.700 |ddv_scf|^2 =  2.403E-11

      iter #   7 total cpu time :  9377.2 secs   av.it.:   9.8
      thresh= 4.902E-07 alpha_mix =  0.700 |ddv_scf|^2 =  1.134E-12

      iter #   8 total cpu time :  9506.7 secs   av.it.:   9.8
      thresh= 1.065E-07 alpha_mix =  0.700 |ddv_scf|^2 =  2.881E-14

      iter #   9 total cpu time :  9644.0 secs   av.it.:  10.6
      thresh= 1.697E-08 alpha_mix =  0.700 |ddv_scf|^2 =  2.413E-14

      iter #  10 total cpu time :  9774.1 secs   av.it.:   9.7
      thresh= 1.553E-08 alpha_mix =  0.700 |ddv_scf|^2 =  3.867E-15

     End of self-consistent calculation

     Convergence has been achieved 


     Representation #   4 mode #   4

     Self-consistent Calculation

      iter #   1 total cpu time :  9877.2 secs   av.it.:   5.8
      thresh= 1.000E-02 alpha_mix =  0.700 |ddv_scf|^2 =  1.705E-06

      iter #   2 total cpu time : 10015.1 secs   av.it.:  10.6
      thresh= 1.306E-04 alpha_mix =  0.700 |ddv_scf|^2 =  3.163E-06

      iter #   3 total cpu time : 10142.7 secs   av.it.:   9.5
      thresh= 1.778E-04 alpha_mix =  0.700 |ddv_scf|^2 =  9.601E-08

      iter #   4 total cpu time : 10274.0 secs   av.it.:   9.9
      thresh= 3.099E-05 alpha_mix =  0.700 |ddv_scf|^2 =  4.104E-09

      iter #   5 total cpu time : 10407.3 secs   av.it.:  10.1
      thresh= 6.407E-06 alpha_mix =  0.700 |ddv_scf|^2 =  8.995E-10

      iter #   6 total cpu time : 10541.2 secs   av.it.:  10.1
      thresh= 2.999E-06 alpha_mix =  0.700 |ddv_scf|^2 =  3.040E-11

      iter #   7 total cpu time : 10673.5 secs   av.it.:   9.9
      thresh= 5.514E-07 alpha_mix =  0.700 |ddv_scf|^2 =  1.294E-12

      iter #   8 total cpu time : 10807.4 secs   av.it.:  10.2
      thresh= 1.137E-07 alpha_mix =  0.700 |ddv_scf|^2 =  3.071E-13

      iter #   9 total cpu time : 10941.5 secs   av.it.:  10.1
      thresh= 5.542E-08 alpha_mix =  0.700 |ddv_scf|^2 =  2.134E-13

      iter #  10 total cpu time : 11071.3 secs   av.it.:   9.6
      thresh= 4.620E-08 alpha_mix =  0.700 |ddv_scf|^2 =  1.215E-14

      iter #  11 total cpu time : 11205.2 secs   av.it.:  10.1
      thresh= 1.102E-08 alpha_mix =  0.700 |ddv_scf|^2 =  9.276E-16

     End of self-consistent calculation

     Convergence has been achieved 


     Representation #   5 mode #   5

     Self-consistent Calculation

      iter #   1 total cpu time : 11305.1 secs   av.it.:   5.6
      thresh= 1.000E-02 alpha_mix =  0.700 |ddv_scf|^2 =  3.168E-07

      iter #   2 total cpu time : 11441.9 secs   av.it.:  10.4
      thresh= 5.629E-05 alpha_mix =  0.700 |ddv_scf|^2 =  4.839E-08

      iter #   3 total cpu time : 11575.8 secs   av.it.:  10.2
      thresh= 2.200E-05 alpha_mix =  0.700 |ddv_scf|^2 =  2.064E-09

      iter #   4 total cpu time : 11707.1 secs   av.it.:   9.9
      thresh= 4.543E-06 alpha_mix =  0.700 |ddv_scf|^2 =  6.259E-11

      iter #   5 total cpu time : 11828.6 secs   av.it.:   8.9
      thresh= 7.911E-07 alpha_mix =  0.700 |ddv_scf|^2 =  3.995E-14

      iter #   6 total cpu time : 11964.2 secs   av.it.:  10.4
      thresh= 1.999E-08 alpha_mix =  0.700 |ddv_scf|^2 =  4.153E-16

     End of self-consistent calculation

     Convergence has been achieved 


     Representation #   6 mode #   6

     Self-consistent Calculation

      iter #   1 total cpu time : 12063.9 secs   av.it.:   5.6
      thresh= 1.000E-02 alpha_mix =  0.700 |ddv_scf|^2 =  3.168E-07

      iter #   2 total cpu time : 12200.7 secs   av.it.:  10.4
      thresh= 5.629E-05 alpha_mix =  0.700 |ddv_scf|^2 =  4.839E-08

      iter #   3 total cpu time : 12334.6 secs   av.it.:  10.2
      thresh= 2.200E-05 alpha_mix =  0.700 |ddv_scf|^2 =  2.064E-09

      iter #   4 total cpu time : 12465.9 secs   av.it.:   9.9
      thresh= 4.543E-06 alpha_mix =  0.700 |ddv_scf|^2 =  6.259E-11

      iter #   5 total cpu time : 12587.4 secs   av.it.:   8.9
      thresh= 7.911E-07 alpha_mix =  0.700 |ddv_scf|^2 =  3.995E-14

      iter #   6 total cpu time : 12722.9 secs   av.it.:  10.4
      thresh= 1.999E-08 alpha_mix =  0.700 |ddv_scf|^2 =  4.153E-16

     End of self-consistent calculation

     Convergence has been achieved 
 
     Number of q in the star =   24
     List of q in the star:
          1   0.750000000  -0.250000000   0.750000000
          2   0.750000000  -0.250000000  -0.750000000
          3  -0.750000000  -0.250000000  -0.750000000
          4  -0.750000000  -0.250000000   0.750000000
          5  -0.750000000   0.250000000  -0.750000000
          6  -0.250000000   0.750000000  -0.750000000
          7  -0.750000000   0.750000000  -0.250000000
          8   0.750000000   0.250000000   0.750000000
          9  -0.750000000   0.250000000   0.750000000
         10   0.750000000   0.250000000  -0.750000000
         11  -0.750000000   0.750000000   0.250000000
         12  -0.250000000   0.750000000   0.750000000
         13   0.250000000   0.750000000  -0.750000000
         14  -0.250000000  -0.750000000  -0.750000000
         15   0.750000000   0.750000000  -0.250000000
         16   0.750000000  -0.750000000   0.250000000
         17  -0.750000000  -0.750000000  -0.250000000
         18   0.250000000  -0.750000000   0.750000000
         19  -0.750000000  -0.750000000   0.250000000
         20   0.250000000   0.750000000   0.750000000
         21  -0.250000000  -0.750000000   0.750000000
         22   0.750000000   0.750000000   0.250000000
         23   0.250000000  -0.750000000  -0.750000000
         24   0.750000000  -0.750000000  -0.250000000

     Diagonalizing the dynamical matrix

     q = (    0.750000000  -0.250000000   0.750000000 ) 

 **************************************************************************
     freq (    1) =       4.252645 [THz] =     141.852955 [cm-1]
     freq (    2) =       5.878289 [THz] =     196.078617 [cm-1]
     freq (    3) =       9.373407 [THz] =     312.663214 [cm-1]
     freq (    4) =      12.086959 [THz] =     403.177550 [cm-1]
     freq (    5) =      13.614361 [THz] =     454.126215 [cm-1]
     freq (    6) =      14.018764 [THz] =     467.615647 [cm-1]
 **************************************************************************

     Mode symmetry, C_s (m)     point group:

     freq (   1-   1) =        141.9  [cm-1]   --> A''                
     freq (   2-   2) =        196.1  [cm-1]   --> A'                 
     freq (   3-   3) =        312.7  [cm-1]   --> A'                 
     freq (   4-   4) =        403.2  [cm-1]   --> A'                 
     freq (   5-   5) =        454.1  [cm-1]   --> A''                
     freq (   6-   6) =        467.6  [cm-1]   --> A'                 

     Calculation of q =    0.5000000   0.0000000   0.5000000
 
     G-vector sticks info
     --------------------
     sticks:   dense  smooth     PW     G-vecs:    dense   smooth      PW
     Sum        1165    1165    379                26565    26565    5029
 
     Using Slab Decomposition
 

     Title: 
     phonons of Si in Diamond structure                                         


     bravais-lattice index     =            2
     lattice parameter (alat)  =      10.3352  a.u.
     unit-cell volume          =     275.9921 (a.u.)^3
     number of atoms/cell      =            2
     number of atomic types    =            1
     number of electrons       =         8.00
     number of Kohn-Sham states=            4
     kinetic-energy cutoff     =      80.0000  Ry
     charge density cutoff     =     320.0000  Ry
     Exchange-correlation= PBE
                           (   1   4   3   4   0   0   0)

     GPU acceleration is ACTIVE.


     celldm(1)=  10.335200  celldm(2)=   0.000000  celldm(3)=   0.000000
     celldm(4)=   0.000000  celldm(5)=   0.000000  celldm(6)=   0.000000

     crystal axes: (cart. coord. in units of alat)
               a(1) = (  -0.500000   0.000000   0.500000 )  
               a(2) = (   0.000000   0.500000   0.500000 )  
               a(3) = (  -0.500000   0.500000   0.000000 )  

     reciprocal axes: (cart. coord. in units 2 pi/alat)
               b(1) = ( -1.000000 -1.000000  1.000000 )  
               b(2) = (  1.000000  1.000000  1.000000 )  
               b(3) = ( -1.000000  1.000000 -1.000000 )  


     PseudoPot. # 1 for Si read from file:
     ../pseudo/Si.pbe-n-kjpaw_psl.1.0.0.UPF
     MD5 check sum: c39c59da582df4a0d9f10159256ea34e
     Pseudo is Projector augmented-wave + core cor, Zval =  4.0
     Generated using &quot;atomic&quot; code by A. Dal Corso  v.6.3
     Shape of augmentation charge: PSQ
     Using radial grid of 1141 points,  6 beta functions with: 
                l(1) =   0
                l(2) =   0
                l(3) =   1
                l(4) =   1
                l(5) =   2
                l(6) =   2
     Q(r) pseudized with 0 coefficients 


     atomic species   valence    mass     pseudopotential
        Si             4.00    28.08500     Si( 1.00)

     48 Sym. Ops., with inversion, found



   Cartesian axes

     site n.     atom                  positions (alat units)
         1           Si  tau(   1) = (   0.0000000   0.0000000   0.0000000  )
         2           Si  tau(   2) = (  -0.2500000   0.2500000   0.2500000  )

     number of k points=  8448

     Number of k-points >= 100: set verbosity='high' to print them.

     Dense  grid:    26565 G-vectors     FFT dimensions: (  48,  48,  48)

     Estimated max dynamical RAM per process >       1.77 GB

     The potential is recalculated from file :
     ./_ph0/pwscf.save/charge-density

     Starting wfcs are    8 atomic wfcs

     Band Structure Calculation
     Davidson diagonalization with overlap

     ethr =  1.25E-10,  avg # of iterations = 13.4

     total cpu time spent up to now is      929.7 secs

     End of band structure calculation

     Number of k-points >= 100: set verbosity='high' to print the bands.

     highest occupied level (ev):     5.9606

     phonons of Si in Diamond structure                                         

     bravais-lattice index     =            2
     lattice parameter (alat)  =      10.3352  a.u.
     unit-cell volume          =     275.9921 (a.u.)^3
     number of atoms/cell      =            2
     number of atomic types    =            1
     kinetic-energy cut-off    =      80.0000  Ry
     charge density cut-off    =     320.0000  Ry
     convergence threshold     =      1.0E-14
     beta                      =       0.7000
     number of iterations used =            4
     Exchange-correlation= PBE
                           (   1   4   3   4   0   0   0)


     celldm(1)=   10.33520  celldm(2)=    0.00000  celldm(3)=    0.00000
     celldm(4)=    0.00000  celldm(5)=    0.00000  celldm(6)=    0.00000

     crystal axes: (cart. coord. in units of alat)
               a(1) = ( -0.5000  0.0000  0.5000 )  
               a(2) = (  0.0000  0.5000  0.5000 )  
               a(3) = ( -0.5000  0.5000  0.0000 )  

     reciprocal axes: (cart. coord. in units 2 pi/alat)
               b(1) = ( -1.0000 -1.0000  1.0000 )  
               b(2) = (  1.0000  1.0000  1.0000 )  
               b(3) = ( -1.0000  1.0000 -1.0000 )  


     Atoms inside the unit cell: 

     Cartesian axes

     site n.  atom      mass           positions (alat units)
        1     Si  28.0850   tau(    1) = (    0.00000    0.00000    0.00000  )
        2     Si  28.0850   tau(    2) = (   -0.25000    0.25000    0.25000  )

     Computing dynamical matrix for 
                    q = (   0.5000000   0.0000000   0.5000000 )
 
      4 Sym.Ops. (no q -> -q+G )


     G cutoff =  865.8208  (  26565 G-vectors)     FFT grid: ( 48, 48, 48)
     number of k points=  8448

     PseudoPot. # 1 for Si read from file:
     ../pseudo/Si.pbe-n-kjpaw_psl.1.0.0.UPF
     MD5 check sum: c39c59da582df4a0d9f10159256ea34e
     Pseudo is Projector augmented-wave + core cor, Zval =  4.0
     Generated using &quot;atomic&quot; code by A. Dal Corso  v.6.3
     Shape of augmentation charge: PSQ
     Using radial grid of 1141 points,  6 beta functions with: 
                l(1) =   0
                l(2) =   0
                l(3) =   1
                l(4) =   1
                l(5) =   2
                l(6) =   2
     Q(r) pseudized with 0 coefficients 


     Mode symmetry, C_2v (mm2)  point group:


     Atomic displacements:
     There are    6 irreducible representations

     Representation     1      1 modes -  To be done

     Representation     2      1 modes -  To be done

     Representation     3      1 modes -  To be done

     Representation     4      1 modes -  To be done

     Representation     5      1 modes -  To be done

     Representation     6      1 modes -  To be done



     Alpha used in Ewald sum =   2.8000
     PHONON       :      5h 2m CPU      3h37m WALL



     Representation #   1 mode #   1

     Self-consistent Calculation

      iter #   1 total cpu time : 13116.1 secs   av.it.:   5.9
      thresh= 1.000E-02 alpha_mix =  0.700 |ddv_scf|^2 =  5.176E-06

      iter #   2 total cpu time : 13183.9 secs   av.it.:  10.2
      thresh= 2.275E-04 alpha_mix =  0.700 |ddv_scf|^2 =  2.450E-05

      iter #   3 total cpu time : 13245.0 secs   av.it.:   8.8
      thresh= 4.950E-04 alpha_mix =  0.700 |ddv_scf|^2 =  6.810E-08

      iter #   4 total cpu time : 13311.5 secs   av.it.:  10.0
      thresh= 2.610E-05 alpha_mix =  0.700 |ddv_scf|^2 =  1.911E-09

      iter #   5 total cpu time : 13376.9 secs   av.it.:   9.9
      thresh= 4.371E-06 alpha_mix =  0.700 |ddv_scf|^2 =  6.118E-11

      iter #   6 total cpu time : 13439.3 secs   av.it.:   9.1
      thresh= 7.821E-07 alpha_mix =  0.700 |ddv_scf|^2 =  9.499E-13

      iter #   7 total cpu time : 13502.1 secs   av.it.:   9.1
      thresh= 9.746E-08 alpha_mix =  0.700 |ddv_scf|^2 =  2.499E-13

      iter #   8 total cpu time : 13568.7 secs   av.it.:   9.9
      thresh= 4.999E-08 alpha_mix =  0.700 |ddv_scf|^2 =  6.329E-13

      iter #   9 total cpu time : 13630.7 secs   av.it.:   8.9
      thresh= 7.956E-08 alpha_mix =  0.700 |ddv_scf|^2 =  1.968E-15

     End of self-consistent calculation

     Convergence has been achieved 


     Representation #   2 mode #   2

     Self-consistent Calculation

      iter #   1 total cpu time : 13688.0 secs   av.it.:   6.5
      thresh= 1.000E-02 alpha_mix =  0.700 |ddv_scf|^2 =  3.832E-05

      iter #   2 total cpu time : 13755.8 secs   av.it.:  10.1
      thresh= 6.191E-04 alpha_mix =  0.700 |ddv_scf|^2 =  2.030E-04

      iter #   3 total cpu time : 13817.3 secs   av.it.:   8.7
      thresh= 1.425E-03 alpha_mix =  0.700 |ddv_scf|^2 =  5.546E-08

      iter #   4 total cpu time : 13884.8 secs   av.it.:  10.2
      thresh= 2.355E-05 alpha_mix =  0.700 |ddv_scf|^2 =  2.559E-09

      iter #   5 total cpu time : 13951.1 secs   av.it.:   9.9
      thresh= 5.059E-06 alpha_mix =  0.700 |ddv_scf|^2 =  8.749E-11

      iter #   6 total cpu time : 14014.0 secs   av.it.:   9.3
      thresh= 9.354E-07 alpha_mix =  0.700 |ddv_scf|^2 =  2.341E-12

      iter #   7 total cpu time : 14077.2 secs   av.it.:   9.2
      thresh= 1.530E-07 alpha_mix =  0.700 |ddv_scf|^2 =  3.534E-13

      iter #   8 total cpu time : 14139.1 secs   av.it.:   8.8
      thresh= 5.945E-08 alpha_mix =  0.700 |ddv_scf|^2 =  3.308E-14

      iter #   9 total cpu time : 14205.4 secs   av.it.:   9.8
      thresh= 1.819E-08 alpha_mix =  0.700 |ddv_scf|^2 =  6.988E-14

      iter #  10 total cpu time : 14267.5 secs   av.it.:   8.9
      thresh= 2.643E-08 alpha_mix =  0.700 |ddv_scf|^2 =  1.395E-16

     End of self-consistent calculation

     Convergence has been achieved 


     Representation #   3 mode #   3

     Self-consistent Calculation

      iter #   1 total cpu time : 14319.2 secs   av.it.:   5.6
      thresh= 1.000E-02 alpha_mix =  0.700 |ddv_scf|^2 =  3.010E-07

      iter #   2 total cpu time : 14388.2 secs   av.it.:  10.3
      thresh= 5.486E-05 alpha_mix =  0.700 |ddv_scf|^2 =  3.087E-08

      iter #   3 total cpu time : 14455.9 secs   av.it.:  10.2
      thresh= 1.757E-05 alpha_mix =  0.700 |ddv_scf|^2 =  1.685E-09

      iter #   4 total cpu time : 14520.7 secs   av.it.:   9.5
      thresh= 4.105E-06 alpha_mix =  0.700 |ddv_scf|^2 =  5.366E-11

      iter #   5 total cpu time : 14580.6 secs   av.it.:   8.6
      thresh= 7.325E-07 alpha_mix =  0.700 |ddv_scf|^2 =  1.401E-14

      iter #   6 total cpu time : 14648.2 secs   av.it.:  10.1
      thresh= 1.184E-08 alpha_mix =  0.700 |ddv_scf|^2 =  2.366E-16

     End of self-consistent calculation

     Convergence has been achieved 


     Representation #   4 mode #   4

     Self-consistent Calculation

      iter #   1 total cpu time : 14696.8 secs   av.it.:   5.1
      thresh= 1.000E-02 alpha_mix =  0.700 |ddv_scf|^2 =  9.470E-08

      iter #   2 total cpu time : 14762.0 secs   av.it.:   9.6
      thresh= 3.077E-05 alpha_mix =  0.700 |ddv_scf|^2 =  7.908E-09

      iter #   3 total cpu time : 14826.8 secs   av.it.:   9.6
      thresh= 8.893E-06 alpha_mix =  0.700 |ddv_scf|^2 =  2.631E-10

      iter #   4 total cpu time : 14887.0 secs   av.it.:   8.6
      thresh= 1.622E-06 alpha_mix =  0.700 |ddv_scf|^2 =  4.600E-12

      iter #   5 total cpu time : 14949.1 secs   av.it.:   9.0
      thresh= 2.145E-07 alpha_mix =  0.700 |ddv_scf|^2 =  6.645E-15

     End of self-consistent calculation

     Convergence has been achieved 


     Representation #   5 mode #   5

     Self-consistent Calculation

      iter #   1 total cpu time : 14997.6 secs   av.it.:   5.0
      thresh= 1.000E-02 alpha_mix =  0.700 |ddv_scf|^2 =  1.249E-07

      iter #   2 total cpu time : 15065.8 secs   av.it.:  10.3
      thresh= 3.535E-05 alpha_mix =  0.700 |ddv_scf|^2 =  3.113E-08

      iter #   3 total cpu time : 15134.2 secs   av.it.:  10.3
      thresh= 1.764E-05 alpha_mix =  0.700 |ddv_scf|^2 =  8.182E-09

      iter #   4 total cpu time : 15200.7 secs   av.it.:  10.0
      thresh= 9.046E-06 alpha_mix =  0.700 |ddv_scf|^2 =  1.199E-10

      iter #   5 total cpu time : 15266.0 secs   av.it.:   9.7
      thresh= 1.095E-06 alpha_mix =  0.700 |ddv_scf|^2 =  6.638E-12

      iter #   6 total cpu time : 15333.0 secs   av.it.:  10.1
      thresh= 2.576E-07 alpha_mix =  0.700 |ddv_scf|^2 =  1.603E-14

      iter #   7 total cpu time : 15401.0 secs   av.it.:  10.3
      thresh= 1.266E-08 alpha_mix =  0.700 |ddv_scf|^2 =  5.708E-16

     End of self-consistent calculation

     Convergence has been achieved 


     Representation #   6 mode #   6

     Self-consistent Calculation

      iter #   1 total cpu time : 15455.1 secs   av.it.:   5.9
      thresh= 1.000E-02 alpha_mix =  0.700 |ddv_scf|^2 =  1.677E-06

      iter #   2 total cpu time : 15524.6 secs   av.it.:  10.5
      thresh= 1.295E-04 alpha_mix =  0.700 |ddv_scf|^2 =  1.250E-06

      iter #   3 total cpu time : 15591.1 secs   av.it.:   9.9
      thresh= 1.118E-04 alpha_mix =  0.700 |ddv_scf|^2 =  4.268E-09

      iter #   4 total cpu time : 15657.3 secs   av.it.:  10.0
      thresh= 6.533E-06 alpha_mix =  0.700 |ddv_scf|^2 =  2.815E-10

      iter #   5 total cpu time : 15724.2 secs   av.it.:  10.2
      thresh= 1.678E-06 alpha_mix =  0.700 |ddv_scf|^2 =  1.508E-11

      iter #   6 total cpu time : 15787.1 secs   av.it.:   9.3
      thresh= 3.883E-07 alpha_mix =  0.700 |ddv_scf|^2 =  1.210E-14

      iter #   7 total cpu time : 15852.6 secs   av.it.:   9.9
      thresh= 1.100E-08 alpha_mix =  0.700 |ddv_scf|^2 =  3.521E-16

     End of self-consistent calculation

     Convergence has been achieved 
 
     Number of q in the star =   12
     List of q in the star:
          1   0.500000000   0.000000000   0.500000000
          2  -0.500000000   0.000000000   0.500000000
          3  -0.500000000   0.000000000  -0.500000000
          4   0.500000000   0.000000000  -0.500000000
          5   0.000000000   0.500000000  -0.500000000
          6  -0.500000000   0.500000000   0.000000000
          7   0.000000000   0.500000000   0.500000000
          8   0.000000000  -0.500000000  -0.500000000
          9   0.500000000   0.500000000   0.000000000
         10   0.500000000  -0.500000000   0.000000000
         11  -0.500000000  -0.500000000   0.000000000
         12   0.000000000  -0.500000000   0.500000000

     Diagonalizing the dynamical matrix

     q = (    0.500000000   0.000000000   0.500000000 ) 

 **************************************************************************
     freq (    1) =       4.122866 [THz] =     137.523993 [cm-1]
     freq (    2) =       5.774876 [THz] =     192.629137 [cm-1]
     freq (    3) =       8.317150 [THz] =     277.430248 [cm-1]
     freq (    4) =      12.275730 [THz] =     409.474290 [cm-1]
     freq (    5) =      13.840374 [THz] =     461.665193 [cm-1]
     freq (    6) =      14.269217 [THz] =     475.969832 [cm-1]
 **************************************************************************

     Mode symmetry, C_2v (mm2)  point group:

     freq (   1-   1) =        137.5  [cm-1]   --> B_1  D_3  S_3      
     freq (   2-   2) =        192.6  [cm-1]   --> B_2  D_4  S_4      
     freq (   3-   3) =        277.4  [cm-1]   --> A_1  D_1  S_1      
     freq (   4-   4) =        409.5  [cm-1]   --> B_2  D_4  S_4      
     freq (   5-   5) =        461.7  [cm-1]   --> A_2  D_2  S_2      
     freq (   6-   6) =        476.0  [cm-1]   --> A_1  D_1  S_1      

     Calculation of q =    0.0000000  -1.0000000   0.0000000
 
     G-vector sticks info
     --------------------
     sticks:   dense  smooth     PW     G-vecs:    dense   smooth      PW
     Sum        1165    1165    397                26565    26565    5209
 
     Using Slab Decomposition
 

     Title: 
     phonons of Si in Diamond structure                                         


     bravais-lattice index     =            2
     lattice parameter (alat)  =      10.3352  a.u.
     unit-cell volume          =     275.9921 (a.u.)^3
     number of atoms/cell      =            2
     number of atomic types    =            1
     number of electrons       =         8.00
     number of Kohn-Sham states=            4
     kinetic-energy cutoff     =      80.0000  Ry
     charge density cutoff     =     320.0000  Ry
     Exchange-correlation= PBE
                           (   1   4   3   4   0   0   0)

     GPU acceleration is ACTIVE.


     celldm(1)=  10.335200  celldm(2)=   0.000000  celldm(3)=   0.000000
     celldm(4)=   0.000000  celldm(5)=   0.000000  celldm(6)=   0.000000

     crystal axes: (cart. coord. in units of alat)
               a(1) = (  -0.500000   0.000000   0.500000 )  
               a(2) = (   0.000000   0.500000   0.500000 )  
               a(3) = (  -0.500000   0.500000   0.000000 )  

     reciprocal axes: (cart. coord. in units 2 pi/alat)
               b(1) = ( -1.000000 -1.000000  1.000000 )  
               b(2) = (  1.000000  1.000000  1.000000 )  
               b(3) = ( -1.000000  1.000000 -1.000000 )  


     PseudoPot. # 1 for Si read from file:
     ../pseudo/Si.pbe-n-kjpaw_psl.1.0.0.UPF
     MD5 check sum: c39c59da582df4a0d9f10159256ea34e
     Pseudo is Projector augmented-wave + core cor, Zval =  4.0
     Generated using &quot;atomic&quot; code by A. Dal Corso  v.6.3
     Shape of augmentation charge: PSQ
     Using radial grid of 1141 points,  6 beta functions with: 
                l(1) =   0
                l(2) =   0
                l(3) =   1
                l(4) =   1
                l(5) =   2
                l(6) =   2
     Q(r) pseudized with 0 coefficients 


     atomic species   valence    mass     pseudopotential
        Si             4.00    28.08500     Si( 1.00)

     48 Sym. Ops., with inversion, found



   Cartesian axes

     site n.     atom                  positions (alat units)
         1           Si  tau(   1) = (   0.0000000   0.0000000   0.0000000  )
[...]

      iter #   5 total cpu time : 16286.7 secs   av.it.:  10.9
      thresh= 9.849E-07 alpha_mix =  0.700 |ddv_scf|^2 =  5.230E-12

      iter #   6 total cpu time : 16322.5 secs   av.it.:  10.4
      thresh= 2.287E-07 alpha_mix =  0.700 |ddv_scf|^2 =  1.440E-14

      iter #   7 total cpu time : 16358.8 secs   av.it.:  10.5
      thresh= 1.200E-08 alpha_mix =  0.700 |ddv_scf|^2 =  1.223E-16

     End of self-consistent calculation

     Convergence has been achieved 


     Representation #   3 modes #   5   6

     Self-consistent Calculation

      iter #   1 total cpu time : 16386.1 secs   av.it.:   6.0
      thresh= 1.000E-02 alpha_mix =  0.700 |ddv_scf|^2 =  2.143E-07

      iter #   2 total cpu time : 16424.7 secs   av.it.:  11.3
      thresh= 4.630E-05 alpha_mix =  0.700 |ddv_scf|^2 =  5.158E-08

      iter #   3 total cpu time : 16462.4 secs   av.it.:  11.0
      thresh= 2.271E-05 alpha_mix =  0.700 |ddv_scf|^2 =  6.318E-10

      iter #   4 total cpu time : 16498.7 secs   av.it.:  10.5
      thresh= 2.514E-06 alpha_mix =  0.700 |ddv_scf|^2 =  1.847E-11

      iter #   5 total cpu time : 16532.6 secs   av.it.:   9.4
      thresh= 4.298E-07 alpha_mix =  0.700 |ddv_scf|^2 =  4.163E-15

     End of self-consistent calculation

     Convergence has been achieved 
 
     Number of q in the star =    3
     List of q in the star:
          1   0.000000000  -1.000000000   0.000000000
          2  -1.000000000   0.000000000   0.000000000
          3   0.000000000   0.000000000  -1.000000000

     Diagonalizing the dynamical matrix

     q = (    0.000000000  -1.000000000   0.000000000 ) 

 **************************************************************************
     freq (    1) =       4.402172 [THz] =     146.840648 [cm-1]
     freq (    2) =       4.402172 [THz] =     146.840648 [cm-1]
     freq (    3) =      12.030485 [THz] =     401.293775 [cm-1]
     freq (    4) =      12.030485 [THz] =     401.293775 [cm-1]
     freq (    5) =      13.392819 [THz] =     446.736346 [cm-1]
     freq (    6) =      13.392819 [THz] =     446.736346 [cm-1]
 **************************************************************************

     Calculation of q =   -0.5000000  -1.0000000   0.0000000
 
     G-vector sticks info
     --------------------
     sticks:   dense  smooth     PW     G-vecs:    dense   smooth      PW
     Sum        1165    1165    409                26565    26565    5329
 
     Using Slab Decomposition
 

     Title: 
     phonons of Si in Diamond structure                                         


     bravais-lattice index     =            2
     lattice parameter (alat)  =      10.3352  a.u.
     unit-cell volume          =     275.9921 (a.u.)^3
     number of atoms/cell      =            2
     number of atomic types    =            1
     number of electrons       =         8.00
     number of Kohn-Sham states=            4
     kinetic-energy cutoff     =      80.0000  Ry
     charge density cutoff     =     320.0000  Ry
     Exchange-correlation= PBE
                           (   1   4   3   4   0   0   0)

     GPU acceleration is ACTIVE.


     celldm(1)=  10.335200  celldm(2)=   0.000000  celldm(3)=   0.000000
     celldm(4)=   0.000000  celldm(5)=   0.000000  celldm(6)=   0.000000

     crystal axes: (cart. coord. in units of alat)
               a(1) = (  -0.500000   0.000000   0.500000 )  
               a(2) = (   0.000000   0.500000   0.500000 )  
               a(3) = (  -0.500000   0.500000   0.000000 )  

     reciprocal axes: (cart. coord. in units 2 pi/alat)
               b(1) = ( -1.000000 -1.000000  1.000000 )  
               b(2) = (  1.000000  1.000000  1.000000 )  
               b(3) = ( -1.000000  1.000000 -1.000000 )  


     PseudoPot. # 1 for Si read from file:
     ../pseudo/Si.pbe-n-kjpaw_psl.1.0.0.UPF
     MD5 check sum: c39c59da582df4a0d9f10159256ea34e
     Pseudo is Projector augmented-wave + core cor, Zval =  4.0
     Generated using &quot;atomic&quot; code by A. Dal Corso  v.6.3
     Shape of augmentation charge: PSQ
     Using radial grid of 1141 points,  6 beta functions with: 
                l(1) =   0
                l(2) =   0
                l(3) =   1
                l(4) =   1
                l(5) =   2
                l(6) =   2
     Q(r) pseudized with 0 coefficients 


     atomic species   valence    mass     pseudopotential
        Si             4.00    28.08500     Si( 1.00)

     48 Sym. Ops., with inversion, found



   Cartesian axes

     site n.     atom                  positions (alat units)
         1           Si  tau(   1) = (   0.0000000   0.0000000   0.0000000  )
         2           Si  tau(   2) = (  -0.2500000   0.2500000   0.2500000  )

     number of k points=  4096

     Number of k-points >= 100: set verbosity='high' to print them.

     Dense  grid:    26565 G-vectors     FFT dimensions: (  48,  48,  48)

     Estimated max dynamical RAM per process >     924.39 MB

     The potential is recalculated from file :
     ./_ph0/pwscf.save/charge-density

     Starting wfcs are    8 atomic wfcs

     Band Structure Calculation
     Davidson diagonalization with overlap

     ethr =  1.25E-10,  avg # of iterations = 13.4

     total cpu time spent up to now is     1080.1 secs

     End of band structure calculation

     Number of k-points >= 100: set verbosity='high' to print the bands.

     highest occupied level (ev):     5.9606

     phonons of Si in Diamond structure                                         

     bravais-lattice index     =            2
     lattice parameter (alat)  =      10.3352  a.u.
     unit-cell volume          =     275.9921 (a.u.)^3
     number of atoms/cell      =            2
     number of atomic types    =            1
     kinetic-energy cut-off    =      80.0000  Ry
     charge density cut-off    =     320.0000  Ry
     convergence threshold     =      1.0E-14
     beta                      =       0.7000
     number of iterations used =            4
     Exchange-correlation= PBE
                           (   1   4   3   4   0   0   0)


     celldm(1)=   10.33520  celldm(2)=    0.00000  celldm(3)=    0.00000
     celldm(4)=    0.00000  celldm(5)=    0.00000  celldm(6)=    0.00000

     crystal axes: (cart. coord. in units of alat)
               a(1) = ( -0.5000  0.0000  0.5000 )  
               a(2) = (  0.0000  0.5000  0.5000 )  
               a(3) = ( -0.5000  0.5000  0.0000 )  

     reciprocal axes: (cart. coord. in units 2 pi/alat)
               b(1) = ( -1.0000 -1.0000  1.0000 )  
               b(2) = (  1.0000  1.0000  1.0000 )  
               b(3) = ( -1.0000  1.0000 -1.0000 )  


     Atoms inside the unit cell: 

     Cartesian axes

     site n.  atom      mass           positions (alat units)
        1     Si  28.0850   tau(    1) = (    0.00000    0.00000    0.00000  )
        2     Si  28.0850   tau(    2) = (   -0.25000    0.25000    0.25000  )

     Computing dynamical matrix for 
                    q = (  -0.5000000  -1.0000000   0.0000000 )
 
      8 Sym.Ops. (no q -> -q+G )


     G cutoff =  865.8208  (  26565 G-vectors)     FFT grid: ( 48, 48, 48)
     number of k points=  4096

     PseudoPot. # 1 for Si read from file:
     ../pseudo/Si.pbe-n-kjpaw_psl.1.0.0.UPF
     MD5 check sum: c39c59da582df4a0d9f10159256ea34e
     Pseudo is Projector augmented-wave + core cor, Zval =  4.0
     Generated using &quot;atomic&quot; code by A. Dal Corso  v.6.3
     Shape of augmentation charge: PSQ
     Using radial grid of 1141 points,  6 beta functions with: 
                l(1) =   0
                l(2) =   0
                l(3) =   1
                l(4) =   1
                l(5) =   2
                l(6) =   2
     Q(r) pseudized with 0 coefficients 



     Atomic displacements:
     There are    3 irreducible representations

     Representation     1      2 modes -  To be done

     Representation     2      2 modes -  To be done

     Representation     3      2 modes -  To be done



     Alpha used in Ewald sum =   2.8000
     PHONON       :      6h19m CPU      4h38m WALL



     Representation #   1 modes #   1   2

     Self-consistent Calculation

      iter #   1 total cpu time : 16750.7 secs   av.it.:   5.6
      thresh= 1.000E-02 alpha_mix =  0.700 |ddv_scf|^2 =  1.477E-07

      iter #   2 total cpu time : 16821.6 secs   av.it.:  11.3
      thresh= 3.844E-05 alpha_mix =  0.700 |ddv_scf|^2 =  7.000E-08

      iter #   3 total cpu time : 16890.3 secs   av.it.:  10.9
      thresh= 2.646E-05 alpha_mix =  0.700 |ddv_scf|^2 =  9.247E-10

      iter #   4 total cpu time : 16958.5 secs   av.it.:  10.8
      thresh= 3.041E-06 alpha_mix =  0.700 |ddv_scf|^2 =  2.293E-11

      iter #   5 total cpu time : 17022.5 secs   av.it.:   9.9
      thresh= 4.788E-07 alpha_mix =  0.700 |ddv_scf|^2 =  5.087E-14

      iter #   6 total cpu time : 17090.8 secs   av.it.:  10.8
      thresh= 2.255E-08 alpha_mix =  0.700 |ddv_scf|^2 =  3.010E-16

     End of self-consistent calculation

     Convergence has been achieved 


     Representation #   2 modes #   3   4

     Self-consistent Calculation

      iter #   1 total cpu time : 17142.2 secs   av.it.:   6.0
      thresh= 1.000E-02 alpha_mix =  0.700 |ddv_scf|^2 =  7.099E-07

      iter #   2 total cpu time : 17213.7 secs   av.it.:  11.4
      thresh= 8.425E-05 alpha_mix =  0.700 |ddv_scf|^2 =  9.654E-07

      iter #   3 total cpu time : 17281.7 secs   av.it.:  10.7
      thresh= 9.826E-05 alpha_mix =  0.700 |ddv_scf|^2 =  1.014E-09

      iter #   4 total cpu time : 17349.5 secs   av.it.:  10.7
      thresh= 3.185E-06 alpha_mix =  0.700 |ddv_scf|^2 =  3.505E-11

      iter #   5 total cpu time : 17416.2 secs   av.it.:  10.4
      thresh= 5.921E-07 alpha_mix =  0.700 |ddv_scf|^2 =  1.093E-12

      iter #   6 total cpu time : 17483.4 secs   av.it.:  10.6
      thresh= 1.045E-07 alpha_mix =  0.700 |ddv_scf|^2 =  9.364E-16

     End of self-consistent calculation

     Convergence has been achieved 


     Representation #   3 modes #   5   6

     Self-consistent Calculation

      iter #   1 total cpu time : 17535.0 secs   av.it.:   6.2
      thresh= 1.000E-02 alpha_mix =  0.700 |ddv_scf|^2 =  4.952E-07

      iter #   2 total cpu time : 17606.3 secs   av.it.:  11.3
      thresh= 7.037E-05 alpha_mix =  0.700 |ddv_scf|^2 =  2.823E-07

      iter #   3 total cpu time : 17675.0 secs   av.it.:  10.8
      thresh= 5.313E-05 alpha_mix =  0.700 |ddv_scf|^2 =  8.025E-10

      iter #   4 total cpu time : 17742.0 secs   av.it.:  10.5
      thresh= 2.833E-06 alpha_mix =  0.700 |ddv_scf|^2 =  2.365E-11

      iter #   5 total cpu time : 17804.4 secs   av.it.:   9.5
      thresh= 4.863E-07 alpha_mix =  0.700 |ddv_scf|^2 =  2.384E-13

      iter #   6 total cpu time : 17871.1 secs   av.it.:  10.4
      thresh= 4.883E-08 alpha_mix =  0.700 |ddv_scf|^2 =  2.616E-16

     End of self-consistent calculation

     Convergence has been achieved 
 
     Number of q in the star =    6
     List of q in the star:
          1  -0.500000000  -1.000000000   0.000000000
          2   0.000000000   1.000000000   0.500000000
          3   0.000000000  -1.000000000  -0.500000000
          4   0.500000000   1.000000000   0.000000000
          5  -1.000000000  -0.500000000   0.000000000
          6   0.000000000  -0.500000000  -1.000000000

     Diagonalizing the dynamical matrix

     q = (   -0.500000000  -1.000000000   0.000000000 ) 

 **************************************************************************
     freq (    1) =       6.018218 [THz] =     200.746138 [cm-1]
     freq (    2) =       6.018218 [THz] =     200.746138 [cm-1]
     freq (    3) =      10.344580 [THz] =     345.058042 [cm-1]
     freq (    4) =      10.344580 [THz] =     345.058042 [cm-1]
     freq (    5) =      13.584968 [THz] =     453.145759 [cm-1]
     freq (    6) =      13.584968 [THz] =     453.145759 [cm-1]
 **************************************************************************
 
     init_run     :     27.09s CPU     13.59s WALL (       7 calls)
     electrons    :   5314.57s CPU   1066.45s WALL (       7 calls)

     Called by init_run:
     wfcinit      :      0.00s CPU      0.00s WALL (       7 calls)
                                        0.00s GPU  (       7 calls)
     potinit      :     14.76s CPU      1.74s WALL (       7 calls)
     hinit0       :      1.26s CPU      0.98s WALL (       7 calls)

     Called by electrons:
     c_bands      :   5314.56s CPU   1066.45s WALL (       7 calls)
     v_of_rho     :      0.10s CPU      0.02s WALL (       8 calls)
     newd         :      0.20s CPU      0.04s WALL (       8 calls)
                                        0.02s GPU  (       7 calls)
     PAW_pot      :     19.62s CPU      2.14s WALL (       8 calls)

     Called by c_bands:
     init_us_2    :    655.63s CPU    314.64s WALL ( 1260024 calls)
     init_us_2:cp :    367.63s CPU     32.77s WALL (  184000 calls)
     init_us_2:gp :    272.65s CPU    273.20s WALL ( 1076024 calls)
     cegterg      :    688.15s CPU    704.65s WALL (   44944 calls)

     Called by *egterg:
     cdiaghg      :    171.29s CPU    155.09s WALL (  649842 calls)
                                      149.87s GPU  (  604898 calls)
     h_psi        :   9972.73s CPU   6396.23s WALL (12413878 calls)
                                     6051.36s GPU  (12368934 calls)
     s_psi        :   1042.15s CPU   1632.85s WALL (25171882 calls)
                                     1477.73s GPU  (25125714 calls)
     g_psi        :      2.28s CPU      7.68s WALL (  604898 calls)
                                        4.49s GPU  (  604898 calls)

     Called by h_psi:
     h_psi:calbec :    367.80s CPU    460.57s WALL (12413878 calls)
                                      390.61s GPU  (12368934 calls)
     vloc_psi     :   7993.97s CPU   4717.98s WALL (12413878 calls)
                                     4397.08s GPU  (12368934 calls)
     add_vuspsi   :    620.98s CPU    763.79s WALL (12413878 calls)
                                      693.99s GPU  (12368934 calls)

     General routines
     calbec       :   1011.18s CPU    578.89s WALL (27333386 calls)
     fft          :     11.79s CPU      9.40s WALL (    5743 calls)
                                        0.10s GPU  (     176 calls)
     ffts         :     16.64s CPU      4.45s WALL (  139968 calls)
                                        3.55s GPU  (  139728 calls)
     fftw         :   1166.16s CPU   3086.52s WALL (42700620 calls)
                                     2371.03s GPU  (42059980 calls)
     davcio       :      5.36s CPU      0.98s WALL (    1224 calls)
 
 
     PHONON       :      6h40m CPU      4h57m WALL

     INITIALIZATION: 
     phq_setup    :      0.03s CPU      0.13s WALL (       8 calls)
     phq_init     :   1484.34s CPU    756.27s WALL (       8 calls)
 
     phq_init     :   1484.34s CPU    756.27s WALL (       8 calls)
     set_drhoc    :      2.34s CPU      2.35s WALL (      24 calls)
     init_vloc    :      0.01s CPU      0.01s WALL (       8 calls)
     init_us_1    :      1.26s CPU      1.03s WALL (       8 calls)
     init_us_2    :    655.63s CPU    314.64s WALL ( 1260024 calls)
     newd         :      0.20s CPU      0.04s WALL (       8 calls)
                                        0.02s GPU  (       7 calls)
     dvanqq       :     61.30s CPU      4.22s WALL (       8 calls)
     drho         :   1174.16s CPU    702.36s WALL (       8 calls)
     drhous       :    923.45s CPU    674.92s WALL (       8 calls)
     nldyntot     :      3.39s CPU      3.40s WALL (       8 calls)
 
     DYNAMICAL MATRIX:
     dynmat0      :    236.18s CPU     36.74s WALL (       8 calls)
     dynmat_us    :    234.30s CPU     35.05s WALL (       8 calls)
     addusdynmat  :      0.00s CPU      0.00s WALL (       8 calls)
     d2ionq       :      0.26s CPU      0.02s WALL (       8 calls)
     dynmatcc     :      1.62s CPU      1.60s WALL (       8 calls)
     phqscf       :  16950.77s CPU  15846.13s WALL (       8 calls)
     dynmatrix    :      0.00s CPU      0.09s WALL (       8 calls)
 
     phqscf       :  16950.77s CPU  15846.13s WALL (       8 calls)
     solve_linter :  16828.62s CPU  15733.65s WALL (      32 calls)
     sth_kernel   :  15026.74s CPU  15316.85s WALL (     230 calls)
     h_prec       :     19.83s CPU     20.05s WALL (  895288 calls)
     apply_dpot_b :    670.37s CPU    678.97s WALL (  897960 calls)
     ortho        :    322.96s CPU    329.74s WALL ( 1037688 calls)
     cgsolve      :  12215.31s CPU  12460.23s WALL ( 1037688 calls)
     incdrhoscf   :   1109.41s CPU   1134.25s WALL ( 1037688 calls)
                                     1128.63s GPU  ( 1037688 calls)
     addusddens   :    158.93s CPU     11.83s WALL (     257 calls)
     dv_of_drho   :      7.33s CPU      7.38s WALL (     331 calls)
     mix_pot      :      0.37s CPU      0.40s WALL (     230 calls)
     drhodv       :     75.57s CPU     76.61s WALL (      32 calls)
     symdvscf     :      6.53s CPU      6.53s WALL (     225 calls)
     newdq        :    184.58s CPU     13.45s WALL (     230 calls)
     adddvscf     :    175.15s CPU    178.72s WALL (  897960 calls)
     drhodvus     :      0.03s CPU      0.03s WALL (      32 calls)
 
     dvqpsi_us    :   1022.89s CPU    221.37s WALL (  139728 calls)
                                      220.68s GPU  (  139728 calls)
     dvqpsi_us_on :    109.67s CPU    114.76s WALL (  139728 calls)
 
     add_vuspsi   :    620.98s CPU    763.79s WALL (12413878 calls)
                                      693.99s GPU  (12368934 calls)
     addusdbec    :    213.65s CPU    215.44s WALL ( 1174968 calls)
 
     drhodvus     :      0.03s CPU      0.03s WALL (      32 calls)
 
      General routines
     calbec       :   1011.18s CPU    578.89s WALL (27333386 calls)
     fft          :     11.79s CPU      9.40s WALL (    5743 calls)
                                        0.10s GPU  (     176 calls)
     ffts         :     16.64s CPU      4.45s WALL (  139968 calls)
                                        3.55s GPU  (  139728 calls)
     fftw         :   1166.16s CPU   3086.52s WALL (42700620 calls)
                                     2371.03s GPU  (42059980 calls)
     davcio       :      5.36s CPU      0.98s WALL (    1224 calls)
     write_rec    :      1.05s CPU      2.76s WALL (     262 calls)
 
      Additional routines
     ch_psi       :   9575.44s CPU   9759.86s WALL (11719092 calls)
     last         :   2513.07s CPU   2564.45s WALL (11719092 calls)
     Hesh         :    100.92s CPU    104.12s WALL (11719092 calls)
     ch_psi_all_k :   2239.56s CPU   2366.55s WALL (11719092 calls)
                                     2311.70s GPU  (11719092 calls)
     ch_psi_calbe :    144.20s CPU    358.44s WALL (11719092 calls)
                                      308.99s GPU  (11719092 calls)
     h_psi_bgrp   :  10100.70s CPU   6522.80s WALL (12413878 calls)
                                     6181.05s GPU  (12368934 calls)
     h_psi        :   9972.73s CPU   6396.23s WALL (12413878 calls)
                                     6051.36s GPU  (12368934 calls)
     h_psi:pot    :   9694.62s CPU   6134.13s WALL (12413878 calls)
                                     5793.03s GPU  (12368934 calls)
     h_psi:calbec :    367.80s CPU    460.57s WALL (12413878 calls)
                                      390.61s GPU  (12368934 calls)
     s_psi_bgrp   :   1938.55s CPU   1983.24s WALL (25171882 calls)
                                     1838.44s GPU  (25125714 calls)
     s_psi        :   1042.15s CPU   1632.85s WALL (25171882 calls)
                                     1477.73s GPU  (25125714 calls)
 
 
     PHONON       :      6h40m CPU      4h57m WALL

 
   This run was terminated on:   5: 2:35   8May2023            

=------------------------------------------------------------------------------=
   JOB DONE.
=------------------------------------------------------------------------------=
