
     Program PHONON v.7.2 starts on  7May2023 at 19:36:15 

     This program is part of the open-source Quantum ESPRESSO suite
     for quantum simulation of materials; please cite
         "P. Giannozzi et al., J. Phys.:Condens. Matter 21 395502 (2009);
         "P. Giannozzi et al., J. Phys.:Condens. Matter 29 465901 (2017);
         "P. Giannozzi et al., J. Chem. Phys. 152 154105 (2020);
          URL http://www.quantum-espresso.org", 
     in publications or presentations arising from this work. More details at
     http://www.quantum-espresso.org/quote

     Parallel version (MPI), running on    16 processors

     MPI processes distributed on     1 nodes
     513807 MiB available memory on the printing compute node when the environment starts
 
     Reading input from ph.in

     Reading xml data from directory:

     ./pwscf.save/
 
     R & G space division:  proc/nbgrp/npool/nimage =      16
     Subspace diagonalization in iterative solution of the eigenvalue problem:
     a serial algorithm will be used

     file Si.pbe-n-kjpaw_psl.1.0.0.UPF: wavefunction(s)  3S 3P renormalized

     IMPORTANT: XC functional enforced from input :
     Exchange-correlation= PBE
                           (   1   4   3   4   0   0   0)
     Any further DFT definition will be discarded
     Please, verify this is what you really want

 
     Parallelization info
     --------------------
     sticks:   dense  smooth     PW     G-vecs:    dense   smooth      PW
     Min          72      72     22                 1658     1658     284
     Max          73      73     23                 1663     1663     287
     Sum        1165    1165    361                26565    26565    4573
 
     Using Slab Decomposition
 
     Reading collected, re-writing distributed wavefunctions in ./


     Dynamical matrices for ( 4, 4, 4)  uniform grid of q-points
     (   8 q-points):
       N         xq(1)         xq(2)         xq(3) 
       1   0.000000000   0.000000000   0.000000000
       2  -0.250000000   0.250000000  -0.250000000
       3   0.500000000  -0.500000000   0.500000000
       4   0.000000000   0.500000000   0.000000000
       5   0.750000000  -0.250000000   0.750000000
       6   0.500000000   0.000000000   0.500000000
       7   0.000000000  -1.000000000   0.000000000
       8  -0.500000000  -1.000000000   0.000000000

     Calculation of q =    0.0000000   0.0000000   0.0000000

     phonons of Si in Diamond structure                                         

     bravais-lattice index     =            2
     lattice parameter (alat)  =      10.3352  a.u.
     unit-cell volume          =     275.9921 (a.u.)^3
     number of atoms/cell      =            2
     number of atomic types    =            1
     kinetic-energy cut-off    =      80.0000  Ry
     charge density cut-off    =     320.0000  Ry
     convergence threshold     =      1.0E-14
     beta                      =       0.7000
     number of iterations used =            4
     Exchange-correlation= PBE
                           (   1   4   3   4   0   0   0)


     celldm(1)=   10.33520  celldm(2)=    0.00000  celldm(3)=    0.00000
     celldm(4)=    0.00000  celldm(5)=    0.00000  celldm(6)=    0.00000

     crystal axes: (cart. coord. in units of alat)
               a(1) = ( -0.5000  0.0000  0.5000 )  
               a(2) = (  0.0000  0.5000  0.5000 )  
               a(3) = ( -0.5000  0.5000  0.0000 )  

     reciprocal axes: (cart. coord. in units 2 pi/alat)
               b(1) = ( -1.0000 -1.0000  1.0000 )  
               b(2) = (  1.0000  1.0000  1.0000 )  
               b(3) = ( -1.0000  1.0000 -1.0000 )  


     Atoms inside the unit cell: 

     Cartesian axes

     site n.  atom      mass           positions (alat units)
        1     Si  28.0850   tau(    1) = (    0.00000    0.00000    0.00000  )
        2     Si  28.0850   tau(    2) = (   -0.25000    0.25000    0.25000  )

     Computing dynamical matrix for 
                    q = (   0.0000000   0.0000000   0.0000000 )
 
     49 Sym.Ops. (with q -> -q+G )


     G cutoff =  865.8208  (   1659 G-vectors)     FFT grid: ( 48, 48, 48)
     number of k points=   408

     PseudoPot. # 1 for Si read from file:
     ../pseudo/Si.pbe-n-kjpaw_psl.1.0.0.UPF
     MD5 check sum: c39c59da582df4a0d9f10159256ea34e
     Pseudo is Projector augmented-wave + core cor, Zval =  4.0
     Generated using &quot;atomic&quot; code by A. Dal Corso  v.6.3
     Shape of augmentation charge: PSQ
     Using radial grid of 1141 points,  6 beta functions with: 
                l(1) =   0
                l(2) =   0
                l(3) =   1
                l(4) =   1
                l(5) =   2
                l(6) =   2
     Q(r) pseudized with 0 coefficients 


     Mode symmetry, O_h (m-3m)  point group:


     Electric field:
     Dielectric constant
     Born effective charges in two ways 


     Atomic displacements:
     There are    2 irreducible representations

     Representation     1      3 modes -  To be done

     Representation     2      3 modes -  To be done



     Alpha used in Ewald sum =   2.8000
     PHONON       :      1.50s CPU      3.86s WALL


     Electric Fields Calculation

      iter #   1 total cpu time :    45.6 secs   av.it.:   6.2
      thresh= 1.000E-02 alpha_mix =  0.700 |ddv_scf|^2 =  5.820E-08

      iter #   2 total cpu time :    66.5 secs   av.it.:  11.6
      thresh= 2.412E-05 alpha_mix =  0.700 |ddv_scf|^2 =  3.325E-09

      iter #   3 total cpu time :    87.1 secs   av.it.:  11.3
      thresh= 5.766E-06 alpha_mix =  0.700 |ddv_scf|^2 =  2.116E-10

      iter #   4 total cpu time :   107.1 secs   av.it.:  10.9
      thresh= 1.455E-06 alpha_mix =  0.700 |ddv_scf|^2 =  2.243E-12

      iter #   5 total cpu time :   127.2 secs   av.it.:  10.9
      thresh= 1.498E-07 alpha_mix =  0.700 |ddv_scf|^2 =  5.135E-15

     End of electric fields calculation

          Dielectric constant in cartesian axis 

          (      12.970241709      -0.000000000       0.000000000 )
          (       0.000000000      12.970241709       0.000000000 )
          (      -0.000000000      -0.000000000      12.970241709 )

          Effective charges (d Force / dE) in cartesian axis without acoustic sum rule applied (asr)

           atom      1   Si Mean Z*:        0.00013
      Ex  (        0.00013       -0.00000       -0.00000 )
      Ey  (       -0.00000        0.00013        0.00000 )
      Ez  (       -0.00000        0.00000        0.00013 )
           atom      2   Si Mean Z*:        0.00013
      Ex  (        0.00013       -0.00000       -0.00000 )
      Ey  (       -0.00000        0.00013       -0.00000 )
      Ez  (       -0.00000        0.00000        0.00013 )

          Effective charges Sum: Mean:        0.00026
              0.00026       -0.00000       -0.00000
             -0.00000        0.00026        0.00000
             -0.00000        0.00000        0.00026

          Effective charges (d Force / dE) in cartesian axis with asr applied: 
           atom      1   Si Mean Z*:       -0.00000
      E*x (       -0.00000       -0.00000       -0.00000 )
      E*y (       -0.00000       -0.00000        0.00000 )
      E*z (       -0.00000        0.00000       -0.00000 )
           atom      2   Si Mean Z*:        0.00000
      E*x (        0.00000        0.00000        0.00000 )
      E*y (        0.00000        0.00000       -0.00000 )
      E*z (        0.00000       -0.00000        0.00000 )


     Representation #   1 modes #   1   2   3

     Self-consistent Calculation

      iter #   1 total cpu time :   149.7 secs   av.it.:   5.4
      thresh= 1.000E-02 alpha_mix =  0.700 |ddv_scf|^2 =  1.484E-08

      iter #   2 total cpu time :   171.2 secs   av.it.:  11.2
      thresh= 1.218E-05 alpha_mix =  0.700 |ddv_scf|^2 =  9.998E-10

      iter #   3 total cpu time :   192.6 secs   av.it.:  11.0
      thresh= 3.162E-06 alpha_mix =  0.700 |ddv_scf|^2 =  7.392E-11

      iter #   4 total cpu time :   212.4 secs   av.it.:  10.6
      thresh= 8.598E-07 alpha_mix =  0.700 |ddv_scf|^2 =  3.198E-12

      iter #   5 total cpu time :   231.3 secs   av.it.:  10.0
      thresh= 1.788E-07 alpha_mix =  0.700 |ddv_scf|^2 =  1.472E-15

     End of self-consistent calculation

     Convergence has been achieved 


     Representation #   2 modes #   4   5   6

     Self-consistent Calculation

      iter #   1 total cpu time :   246.4 secs   av.it.:   5.4
      thresh= 1.000E-02 alpha_mix =  0.700 |ddv_scf|^2 =  1.355E-08

      iter #   2 total cpu time :   267.1 secs   av.it.:  11.2
      thresh= 1.164E-05 alpha_mix =  0.700 |ddv_scf|^2 =  1.072E-09

      iter #   3 total cpu time :   287.5 secs   av.it.:  11.0
      thresh= 3.273E-06 alpha_mix =  0.700 |ddv_scf|^2 =  7.167E-11

      iter #   4 total cpu time :   307.8 secs   av.it.:  10.9
      thresh= 8.466E-07 alpha_mix =  0.700 |ddv_scf|^2 =  4.155E-12

      iter #   5 total cpu time :   326.5 secs   av.it.:   9.9
      thresh= 2.038E-07 alpha_mix =  0.700 |ddv_scf|^2 =  7.398E-16

     End of self-consistent calculation

     Convergence has been achieved 
 
     Number of q in the star =    1
     List of q in the star:
          1   0.000000000   0.000000000   0.000000000

          Dielectric constant in cartesian axis 

          (      12.970241709      -0.000000000       0.000000000 )
          (       0.000000000      12.970241709       0.000000000 )
          (      -0.000000000      -0.000000000      12.970241709 )

          Effective charges (d Force / dE) in cartesian axis without acoustic sum rule applied (asr)

           atom      1   Si Mean Z*:        0.00013
      Ex  (        0.00013       -0.00000       -0.00000 )
      Ey  (       -0.00000        0.00013        0.00000 )
      Ez  (       -0.00000        0.00000        0.00013 )
           atom      2   Si Mean Z*:        0.00013
      Ex  (        0.00013       -0.00000       -0.00000 )
      Ey  (       -0.00000        0.00013       -0.00000 )
      Ez  (       -0.00000        0.00000        0.00013 )

          Effective charges Sum: Mean:        0.00026
              0.00026       -0.00000       -0.00000
             -0.00000        0.00026        0.00000
             -0.00000        0.00000        0.00026

          Effective charges (d Force / dE) in cartesian axis with asr applied: 
           atom      1   Si Mean Z*:       -0.00000
      E*x (       -0.00000       -0.00000       -0.00000 )
      E*y (       -0.00000       -0.00000        0.00000 )
      E*z (       -0.00000        0.00000       -0.00000 )
           atom      2   Si Mean Z*:        0.00000
      E*x (        0.00000        0.00000        0.00000 )
      E*y (        0.00000        0.00000       -0.00000 )
      E*z (        0.00000       -0.00000        0.00000 )

          Effective charges (d P / du) in cartesian axis 

           atom      1   Si 
      Px  (       -0.00017        0.00000        0.00000 )
      Py  (        0.00000       -0.00017        0.00000 )
      Pz  (        0.00000        0.00000       -0.00017 )
           atom      2   Si 
      Px  (       -0.00017       -0.00000       -0.00000 )
      Py  (       -0.00000       -0.00017        0.00000 )
      Pz  (        0.00000        0.00000       -0.00017 )

     Diagonalizing the dynamical matrix

     q = (    0.000000000   0.000000000   0.000000000 ) 

 **************************************************************************
     freq (    1) =       0.122370 [THz] =       4.081826 [cm-1]
     freq (    2) =       0.122370 [THz] =       4.081826 [cm-1]
     freq (    3) =       0.122370 [THz] =       4.081826 [cm-1]
     freq (    4) =      15.089926 [THz] =     503.345740 [cm-1]
     freq (    5) =      15.089926 [THz] =     503.345740 [cm-1]
     freq (    6) =      15.089926 [THz] =     503.345740 [cm-1]
 **************************************************************************

     Mode symmetry, O_h (m-3m)  point group:

     freq (   1-   3) =          4.1  [cm-1]   --> T_1u G_15  G_4- I  
     freq (   4-   6) =        503.3  [cm-1]   --> T_2g G_25' G_5+ R  

     Calculation of q =   -0.2500000   0.2500000  -0.2500000
 
     Parallelization info
     --------------------
     sticks:   dense  smooth     PW     G-vecs:    dense   smooth      PW
     Min          72      72     23                 1658     1658     306
     Max          73      73     24                 1663     1663     308
     Sum        1165    1165    379                26565    26565    4909
 
     Using Slab Decomposition
 

     Title: 
     phonons of Si in Diamond structure                                         


     bravais-lattice index     =            2
     lattice parameter (alat)  =      10.3352  a.u.
     unit-cell volume          =     275.9921 (a.u.)^3
     number of atoms/cell      =            2
     number of atomic types    =            1
     number of electrons       =         8.00
     number of Kohn-Sham states=            4
     kinetic-energy cutoff     =      80.0000  Ry
     charge density cutoff     =     320.0000  Ry
     Exchange-correlation= PBE
                           (   1   4   3   4   0   0   0)

     celldm(1)=  10.335200  celldm(2)=   0.000000  celldm(3)=   0.000000
     celldm(4)=   0.000000  celldm(5)=   0.000000  celldm(6)=   0.000000

     crystal axes: (cart. coord. in units of alat)
               a(1) = (  -0.500000   0.000000   0.500000 )  
               a(2) = (   0.000000   0.500000   0.500000 )  
               a(3) = (  -0.500000   0.500000   0.000000 )  

     reciprocal axes: (cart. coord. in units 2 pi/alat)
               b(1) = ( -1.000000 -1.000000  1.000000 )  
               b(2) = (  1.000000  1.000000  1.000000 )  
               b(3) = ( -1.000000  1.000000 -1.000000 )  


     PseudoPot. # 1 for Si read from file:
     ../pseudo/Si.pbe-n-kjpaw_psl.1.0.0.UPF
     MD5 check sum: c39c59da582df4a0d9f10159256ea34e
     Pseudo is Projector augmented-wave + core cor, Zval =  4.0
     Generated using &quot;atomic&quot; code by A. Dal Corso  v.6.3
     Shape of augmentation charge: PSQ
     Using radial grid of 1141 points,  6 beta functions with: 
                l(1) =   0
                l(2) =   0
                l(3) =   1
                l(4) =   1
                l(5) =   2
                l(6) =   2
     Q(r) pseudized with 0 coefficients 


     atomic species   valence    mass     pseudopotential
        Si             4.00    28.08500     Si( 1.00)

     48 Sym. Ops., with inversion, found



   Cartesian axes

     site n.     atom                  positions (alat units)
         1           Si  tau(   1) = (   0.0000000   0.0000000   0.0000000  )
         2           Si  tau(   2) = (  -0.2500000   0.2500000   0.2500000  )

     number of k points=  5984

     Number of k-points >= 100: set verbosity='high' to print them.

     Dense  grid:    26565 G-vectors     FFT dimensions: (  48,  48,  48)

     Estimated max dynamical RAM per process >      83.00 MB

     Estimated total dynamical RAM >       1.30 GB

     The potential is recalculated from file :
     ./_ph0/pwscf.save/charge-density

     Starting wfcs are    8 atomic wfcs
     Checking if some PAW data can be deallocated... 

     Band Structure Calculation
     Davidson diagonalization with overlap

     ethr =  1.25E-10,  avg # of iterations = 13.5

     total cpu time spent up to now is      110.9 secs

     End of band structure calculation

     Number of k-points >= 100: set verbosity='high' to print the bands.

     highest occupied level (ev):     5.9607

     phonons of Si in Diamond structure                                         

     bravais-lattice index     =            2
     lattice parameter (alat)  =      10.3352  a.u.
     unit-cell volume          =     275.9921 (a.u.)^3
     number of atoms/cell      =            2
     number of atomic types    =            1
     kinetic-energy cut-off    =      80.0000  Ry
     charge density cut-off    =     320.0000  Ry
     convergence threshold     =      1.0E-14
     beta                      =       0.7000
     number of iterations used =            4
     Exchange-correlation= PBE
                           (   1   4   3   4   0   0   0)


     celldm(1)=   10.33520  celldm(2)=    0.00000  celldm(3)=    0.00000
     celldm(4)=    0.00000  celldm(5)=    0.00000  celldm(6)=    0.00000

     crystal axes: (cart. coord. in units of alat)
               a(1) = ( -0.5000  0.0000  0.5000 )  
               a(2) = (  0.0000  0.5000  0.5000 )  
               a(3) = ( -0.5000  0.5000  0.0000 )  

     reciprocal axes: (cart. coord. in units 2 pi/alat)
               b(1) = ( -1.0000 -1.0000  1.0000 )  
               b(2) = (  1.0000  1.0000  1.0000 )  
               b(3) = ( -1.0000  1.0000 -1.0000 )  


     Atoms inside the unit cell: 

     Cartesian axes

     site n.  atom      mass           positions (alat units)
        1     Si  28.0850   tau(    1) = (    0.00000    0.00000    0.00000  )
        2     Si  28.0850   tau(    2) = (   -0.25000    0.25000    0.25000  )

     Computing dynamical matrix for 
                    q = (  -0.2500000   0.2500000  -0.2500000 )
 
      6 Sym.Ops. (no q -> -q+G )


     G cutoff =  865.8208  (   1659 G-vectors)     FFT grid: ( 48, 48, 48)
     number of k points=  5984

     PseudoPot. # 1 for Si read from file:
     ../pseudo/Si.pbe-n-kjpaw_psl.1.0.0.UPF
     MD5 check sum: c39c59da582df4a0d9f10159256ea34e
     Pseudo is Projector augmented-wave + core cor, Zval =  4.0
     Generated using &quot;atomic&quot; code by A. Dal Corso  v.6.3
     Shape of augmentation charge: PSQ
     Using radial grid of 1141 points,  6 beta functions with: 
                l(1) =   0
                l(2) =   0
                l(3) =   1
                l(4) =   1
                l(5) =   2
                l(6) =   2
     Q(r) pseudized with 0 coefficients 


     Mode symmetry, C_3v (3m)   point group:


     Atomic displacements:
     There are    4 irreducible representations

     Representation     1      1 modes -  To be done

     Representation     2      1 modes -  To be done

     Representation     3      2 modes -  To be done

     Representation     4      2 modes -  To be done



     Alpha used in Ewald sum =   2.8000
     PHONON       :   3m35.91s CPU   7m35.43s WALL



     Representation #   1 mode #   1

     Self-consistent Calculation

      iter #   1 total cpu time :   488.0 secs   av.it.:   6.3
      thresh= 1.000E-02 alpha_mix =  0.700 |ddv_scf|^2 =  1.792E-04

      iter #   2 total cpu time :   531.2 secs   av.it.:   9.3
      thresh= 1.339E-03 alpha_mix =  0.700 |ddv_scf|^2 =  2.751E-03

      iter #   3 total cpu time :   568.1 secs   av.it.:   7.7
      thresh= 5.245E-03 alpha_mix =  0.700 |ddv_scf|^2 =  1.057E-07

      iter #   4 total cpu time :   612.9 secs   av.it.:   9.9
      thresh= 3.252E-05 alpha_mix =  0.700 |ddv_scf|^2 =  8.186E-09

      iter #   5 total cpu time :   657.9 secs   av.it.:   9.9
      thresh= 9.047E-06 alpha_mix =  0.700 |ddv_scf|^2 =  3.916E-10

      iter #   6 total cpu time :   702.2 secs   av.it.:   9.7
      thresh= 1.979E-06 alpha_mix =  0.700 |ddv_scf|^2 =  5.492E-11

      iter #   7 total cpu time :   745.4 secs   av.it.:   9.4
      thresh= 7.411E-07 alpha_mix =  0.700 |ddv_scf|^2 =  1.790E-10

      iter #   8 total cpu time :   784.8 secs   av.it.:   8.3
      thresh= 1.338E-06 alpha_mix =  0.700 |ddv_scf|^2 =  5.283E-12

      iter #   9 total cpu time :   826.4 secs   av.it.:   9.0
      thresh= 2.299E-07 alpha_mix =  0.700 |ddv_scf|^2 =  9.838E-13

      iter #  10 total cpu time :   867.5 secs   av.it.:   8.9
      thresh= 9.919E-08 alpha_mix =  0.700 |ddv_scf|^2 =  2.878E-14

      iter #  11 total cpu time :   911.3 secs   av.it.:   9.6
      thresh= 1.696E-08 alpha_mix =  0.700 |ddv_scf|^2 =  1.562E-15

     End of self-consistent calculation

     Convergence has been achieved 


     Representation #   2 mode #   2

     Self-consistent Calculation

      iter #   1 total cpu time :   944.3 secs   av.it.:   6.3
      thresh= 1.000E-02 alpha_mix =  0.700 |ddv_scf|^2 =  1.792E-04

      iter #   2 total cpu time :   987.2 secs   av.it.:   9.3
      thresh= 1.339E-03 alpha_mix =  0.700 |ddv_scf|^2 =  2.751E-03

      iter #   3 total cpu time :  1024.1 secs   av.it.:   7.7
      thresh= 5.245E-03 alpha_mix =  0.700 |ddv_scf|^2 =  1.057E-07

      iter #   4 total cpu time :  1069.5 secs   av.it.:   9.9
      thresh= 3.252E-05 alpha_mix =  0.700 |ddv_scf|^2 =  8.186E-09

      iter #   5 total cpu time :  1114.6 secs   av.it.:   9.9
      thresh= 9.047E-06 alpha_mix =  0.700 |ddv_scf|^2 =  3.916E-10

      iter #   6 total cpu time :  1158.9 secs   av.it.:   9.7
      thresh= 1.979E-06 alpha_mix =  0.700 |ddv_scf|^2 =  5.497E-11

      iter #   7 total cpu time :  1202.0 secs   av.it.:   9.4
      thresh= 7.414E-07 alpha_mix =  0.700 |ddv_scf|^2 =  1.790E-10

      iter #   8 total cpu time :  1241.3 secs   av.it.:   8.3
      thresh= 1.338E-06 alpha_mix =  0.700 |ddv_scf|^2 =  5.282E-12

      iter #   9 total cpu time :  1283.0 secs   av.it.:   9.0
      thresh= 2.298E-07 alpha_mix =  0.700 |ddv_scf|^2 =  9.840E-13

      iter #  10 total cpu time :  1324.0 secs   av.it.:   8.9
      thresh= 9.920E-08 alpha_mix =  0.700 |ddv_scf|^2 =  2.878E-14

      iter #  11 total cpu time :  1367.8 secs   av.it.:   9.6
      thresh= 1.697E-08 alpha_mix =  0.700 |ddv_scf|^2 =  1.562E-15

     End of self-consistent calculation

     Convergence has been achieved 


     Representation #   3 modes #   3   4

     Self-consistent Calculation

      iter #   1 total cpu time :  1428.2 secs   av.it.:   5.6
      thresh= 1.000E-02 alpha_mix =  0.700 |ddv_scf|^2 =  3.930E-08

      iter #   2 total cpu time :  1526.7 secs   av.it.:  11.2
      thresh= 1.982E-05 alpha_mix =  0.700 |ddv_scf|^2 =  3.089E-09

      iter #   3 total cpu time :  1624.9 secs   av.it.:  11.0
      thresh= 5.558E-06 alpha_mix =  0.700 |ddv_scf|^2 =  2.713E-10

      iter #   4 total cpu time :  1720.8 secs   av.it.:  10.8
      thresh= 1.647E-06 alpha_mix =  0.700 |ddv_scf|^2 =  1.131E-11

      iter #   5 total cpu time :  1811.0 secs   av.it.:  10.0
      thresh= 3.363E-07 alpha_mix =  0.700 |ddv_scf|^2 =  4.014E-14

      iter #   6 total cpu time :  1908.1 secs   av.it.:  11.0
      thresh= 2.003E-08 alpha_mix =  0.700 |ddv_scf|^2 =  2.902E-16

     End of self-consistent calculation

     Convergence has been achieved 


     Representation #   4 modes #   5   6

     Self-consistent Calculation

      iter #   1 total cpu time :  1968.6 secs   av.it.:   5.6
      thresh= 1.000E-02 alpha_mix =  0.700 |ddv_scf|^2 =  3.929E-08

      iter #   2 total cpu time :  2066.8 secs   av.it.:  11.1
      thresh= 1.982E-05 alpha_mix =  0.700 |ddv_scf|^2 =  3.087E-09

      iter #   3 total cpu time :  2164.0 secs   av.it.:  11.0
      thresh= 5.556E-06 alpha_mix =  0.700 |ddv_scf|^2 =  2.712E-10

      iter #   4 total cpu time :  2259.8 secs   av.it.:  10.8
      thresh= 1.647E-06 alpha_mix =  0.700 |ddv_scf|^2 =  1.131E-11

      iter #   5 total cpu time :  2349.8 secs   av.it.:  10.0
      thresh= 3.363E-07 alpha_mix =  0.700 |ddv_scf|^2 =  4.046E-14

      iter #   6 total cpu time :  2446.8 secs   av.it.:  11.0
      thresh= 2.011E-08 alpha_mix =  0.700 |ddv_scf|^2 =  2.915E-16

     End of self-consistent calculation

     Convergence has been achieved 
 
     Number of q in the star =    8
     List of q in the star:
          1  -0.250000000   0.250000000  -0.250000000
          2   0.250000000  -0.250000000  -0.250000000
          3   0.250000000  -0.250000000   0.250000000
          4   0.250000000   0.250000000   0.250000000
          5  -0.250000000  -0.250000000  -0.250000000
          6  -0.250000000  -0.250000000   0.250000000
          7  -0.250000000   0.250000000   0.250000000
          8   0.250000000   0.250000000  -0.250000000

     Diagonalizing the dynamical matrix

     q = (   -0.250000000   0.250000000  -0.250000000 ) 

 **************************************************************************
     freq (    1) =       2.848670 [THz] =      95.021407 [cm-1]
     freq (    2) =       2.848670 [THz] =      95.021407 [cm-1]
     freq (    3) =       6.755254 [THz] =     225.331009 [cm-1]
     freq (    4) =      14.222216 [THz] =     474.402058 [cm-1]
     freq (    5) =      14.515506 [THz] =     484.185161 [cm-1]
     freq (    6) =      14.515506 [THz] =     484.185161 [cm-1]
 **************************************************************************

     Mode symmetry, C_3v (3m)   point group:

     freq (   1-   2) =         95.0  [cm-1]   --> E    L_3           
     freq (   3-   3) =        225.3  [cm-1]   --> A_1  L_1           
     freq (   4-   4) =        474.4  [cm-1]   --> A_1  L_1           
     freq (   5-   6) =        484.2  [cm-1]   --> E    L_3           

     Calculation of q =    0.5000000  -0.5000000   0.5000000
 
     Parallelization info
     --------------------
     sticks:   dense  smooth     PW     G-vecs:    dense   smooth      PW
     Min          72      72     24                 1658     1658     322
     Max          73      73     25                 1663     1663     323
     Sum        1165    1165    397                26565    26565    5161
 
     Using Slab Decomposition
 

     Title: 
     phonons of Si in Diamond structure                                         


     bravais-lattice index     =            2
     lattice parameter (alat)  =      10.3352  a.u.
     unit-cell volume          =     275.9921 (a.u.)^3
     number of atoms/cell      =            2
     number of atomic types    =            1
     number of electrons       =         8.00
     number of Kohn-Sham states=            4
     kinetic-energy cutoff     =      80.0000  Ry
     charge density cutoff     =     320.0000  Ry
     Exchange-correlation= PBE
                           (   1   4   3   4   0   0   0)

     celldm(1)=  10.335200  celldm(2)=   0.000000  celldm(3)=   0.000000
     celldm(4)=   0.000000  celldm(5)=   0.000000  celldm(6)=   0.000000

     crystal axes: (cart. coord. in units of alat)
               a(1) = (  -0.500000   0.000000   0.500000 )  
               a(2) = (   0.000000   0.500000   0.500000 )  
               a(3) = (  -0.500000   0.500000   0.000000 )  

     reciprocal axes: (cart. coord. in units 2 pi/alat)
               b(1) = ( -1.000000 -1.000000  1.000000 )  
               b(2) = (  1.000000  1.000000  1.000000 )  
               b(3) = ( -1.000000  1.000000 -1.000000 )  


     PseudoPot. # 1 for Si read from file:
     ../pseudo/Si.pbe-n-kjpaw_psl.1.0.0.UPF
     MD5 check sum: c39c59da582df4a0d9f10159256ea34e
     Pseudo is Projector augmented-wave + core cor, Zval =  4.0
     Generated using &quot;atomic&quot; code by A. Dal Corso  v.6.3
     Shape of augmentation charge: PSQ
     Using radial grid of 1141 points,  6 beta functions with: 
                l(1) =   0
                l(2) =   0
                l(3) =   1
                l(4) =   1
                l(5) =   2
                l(6) =   2
     Q(r) pseudized with 0 coefficients 


     atomic species   valence    mass     pseudopotential
        Si             4.00    28.08500     Si( 1.00)

     48 Sym. Ops., with inversion, found



   Cartesian axes

     site n.     atom                  positions (alat units)
         1           Si  tau(   1) = (   0.0000000   0.0000000   0.0000000  )
         2           Si  tau(   2) = (  -0.2500000   0.2500000   0.2500000  )

     number of k points=  2992

     Number of k-points >= 100: set verbosity='high' to print them.

     Dense  grid:    26565 G-vectors     FFT dimensions: (  48,  48,  48)

     Estimated max dynamical RAM per process >      45.03 MB

     Estimated total dynamical RAM >     720.51 MB

     The potential is recalculated from file :
     ./_ph0/pwscf.save/charge-density

     Starting wfcs are    8 atomic wfcs
     Checking if some PAW data can be deallocated... 

     Band Structure Calculation
     Davidson diagonalization with overlap

     ethr =  1.25E-10,  avg # of iterations = 13.5

     total cpu time spent up to now is      166.5 secs

     End of band structure calculation

     Number of k-points >= 100: set verbosity='high' to print the bands.

     highest occupied level (ev):     5.9607

     phonons of Si in Diamond structure                                         

     bravais-lattice index     =            2
     lattice parameter (alat)  =      10.3352  a.u.
     unit-cell volume          =     275.9921 (a.u.)^3
     number of atoms/cell      =            2
     number of atomic types    =            1
     kinetic-energy cut-off    =      80.0000  Ry
     charge density cut-off    =     320.0000  Ry
     convergence threshold     =      1.0E-14
     beta                      =       0.7000
     number of iterations used =            4
     Exchange-correlation= PBE
                           (   1   4   3   4   0   0   0)


     celldm(1)=   10.33520  celldm(2)=    0.00000  celldm(3)=    0.00000
     celldm(4)=    0.00000  celldm(5)=    0.00000  celldm(6)=    0.00000

     crystal axes: (cart. coord. in units of alat)
               a(1) = ( -0.5000  0.0000  0.5000 )  
               a(2) = (  0.0000  0.5000  0.5000 )  
               a(3) = ( -0.5000  0.5000  0.0000 )  

     reciprocal axes: (cart. coord. in units 2 pi/alat)
               b(1) = ( -1.0000 -1.0000  1.0000 )  
               b(2) = (  1.0000  1.0000  1.0000 )  
               b(3) = ( -1.0000  1.0000 -1.0000 )  


     Atoms inside the unit cell: 

     Cartesian axes

     site n.  atom      mass           positions (alat units)
        1     Si  28.0850   tau(    1) = (    0.00000    0.00000    0.00000  )
        2     Si  28.0850   tau(    2) = (   -0.25000    0.25000    0.25000  )

     Computing dynamical matrix for 
                    q = (   0.5000000  -0.5000000   0.5000000 )
 
     13 Sym.Ops. (with q -> -q+G )


     G cutoff =  865.8208  (   1659 G-vectors)     FFT grid: ( 48, 48, 48)
     number of k points=  2992

     PseudoPot. # 1 for Si read from file:
     ../pseudo/Si.pbe-n-kjpaw_psl.1.0.0.UPF
     MD5 check sum: c39c59da582df4a0d9f10159256ea34e
     Pseudo is Projector augmented-wave + core cor, Zval =  4.0
     Generated using &quot;atomic&quot; code by A. Dal Corso  v.6.3
     Shape of augmentation charge: PSQ
     Using radial grid of 1141 points,  6 beta functions with: 
                l(1) =   0
                l(2) =   0
                l(3) =   1
                l(4) =   1
                l(5) =   2
                l(6) =   2
     Q(r) pseudized with 0 coefficients 



     Atomic displacements:
     There are    4 irreducible representations

     Representation     1      1 modes -  To be done

     Representation     2      1 modes -  To be done

     Representation     3      2 modes -  To be done

     Representation     4      2 modes -  To be done



     Alpha used in Ewald sum =   2.8000
     PHONON       :  19m 9.81s CPU  41m51.11s WALL



     Representation #   1 mode #   1

     Self-consistent Calculation

      iter #   1 total cpu time :  2525.9 secs   av.it.:   5.3
      thresh= 1.000E-02 alpha_mix =  0.700 |ddv_scf|^2 =  1.812E-06

      iter #   2 total cpu time :  2548.8 secs   av.it.:  10.1
      thresh= 1.346E-04 alpha_mix =  0.700 |ddv_scf|^2 =  1.640E-06

      iter #   3 total cpu time :  2570.4 secs   av.it.:   9.4
      thresh= 1.281E-04 alpha_mix =  0.700 |ddv_scf|^2 =  3.062E-09

      iter #   4 total cpu time :  2592.0 secs   av.it.:   9.4
      thresh= 5.534E-06 alpha_mix =  0.700 |ddv_scf|^2 =  9.346E-11

      iter #   5 total cpu time :  2612.2 secs   av.it.:   8.6
      thresh= 9.667E-07 alpha_mix =  0.700 |ddv_scf|^2 =  4.131E-13

      iter #   6 total cpu time :  2633.9 secs   av.it.:   9.5
      thresh= 6.427E-08 alpha_mix =  0.700 |ddv_scf|^2 =  7.160E-15

     End of self-consistent calculation

     Convergence has been achieved 


     Representation #   2 mode #   2

     Self-consistent Calculation

      iter #   1 total cpu time :  2650.8 secs   av.it.:   6.4
      thresh= 1.000E-02 alpha_mix =  0.700 |ddv_scf|^2 =  2.474E-05

      iter #   2 total cpu time :  2673.8 secs   av.it.:  10.1
      thresh= 4.974E-04 alpha_mix =  0.700 |ddv_scf|^2 =  7.736E-05

      iter #   3 total cpu time :  2695.1 secs   av.it.:   9.1
      thresh= 8.795E-04 alpha_mix =  0.700 |ddv_scf|^2 =  1.008E-08

      iter #   4 total cpu time :  2717.6 secs   av.it.:  10.0
      thresh= 1.004E-05 alpha_mix =  0.700 |ddv_scf|^2 =  8.120E-10

      iter #   5 total cpu time :  2740.7 secs   av.it.:  10.2
      thresh= 2.850E-06 alpha_mix =  0.700 |ddv_scf|^2 =  4.425E-11

      iter #   6 total cpu time :  2763.1 secs   av.it.:   9.8
      thresh= 6.652E-07 alpha_mix =  0.700 |ddv_scf|^2 =  8.874E-13

      iter #   7 total cpu time :  2784.6 secs   av.it.:   9.3
      thresh= 9.420E-08 alpha_mix =  0.700 |ddv_scf|^2 =  1.911E-15

     End of self-consistent calculation

     Convergence has been achieved 


     Representation #   3 modes #   3   4

     Self-consistent Calculation

      iter #   1 total cpu time :  2815.2 secs   av.it.:   5.6
      thresh= 1.000E-02 alpha_mix =  0.700 |ddv_scf|^2 =  6.591E-08

      iter #   2 total cpu time :  2864.6 secs   av.it.:  11.1
      thresh= 2.567E-05 alpha_mix =  0.700 |ddv_scf|^2 =  5.849E-09

      iter #   3 total cpu time :  2913.2 secs   av.it.:  10.9
      thresh= 7.648E-06 alpha_mix =  0.700 |ddv_scf|^2 =  3.809E-10

      iter #   4 total cpu time :  2960.0 secs   av.it.:  10.4
      thresh= 1.952E-06 alpha_mix =  0.700 |ddv_scf|^2 =  1.246E-11

      iter #   5 total cpu time :  3003.0 secs   av.it.:   9.4
      thresh= 3.529E-07 alpha_mix =  0.700 |ddv_scf|^2 =  2.510E-15

     End of self-consistent calculation

     Convergence has been achieved 


     Representation #   4 modes #   5   6

     Self-consistent Calculation

      iter #   1 total cpu time :  3032.4 secs   av.it.:   5.3
      thresh= 1.000E-02 alpha_mix =  0.700 |ddv_scf|^2 =  2.549E-08

      iter #   2 total cpu time :  3080.1 secs   av.it.:  10.7
      thresh= 1.597E-05 alpha_mix =  0.700 |ddv_scf|^2 =  2.003E-09

      iter #   3 total cpu time :  3126.9 secs   av.it.:  10.4
      thresh= 4.475E-06 alpha_mix =  0.700 |ddv_scf|^2 =  8.303E-11

      iter #   4 total cpu time :  3172.7 secs   av.it.:  10.1
      thresh= 9.112E-07 alpha_mix =  0.700 |ddv_scf|^2 =  4.312E-12

      iter #   5 total cpu time :  3217.1 secs   av.it.:   9.8
      thresh= 2.076E-07 alpha_mix =  0.700 |ddv_scf|^2 =  3.928E-15

     End of self-consistent calculation

     Convergence has been achieved 
 
     Number of q in the star =    4
     List of q in the star:
          1   0.500000000  -0.500000000   0.500000000
          2   0.500000000   0.500000000   0.500000000
          3  -0.500000000   0.500000000   0.500000000
          4   0.500000000   0.500000000  -0.500000000

     Diagonalizing the dynamical matrix

     q = (    0.500000000  -0.500000000   0.500000000 ) 

 **************************************************************************
     freq (    1) =       3.346122 [THz] =     111.614608 [cm-1]
     freq (    2) =       3.346122 [THz] =     111.614608 [cm-1]
     freq (    3) =      11.105634 [THz] =     370.444077 [cm-1]
     freq (    4) =      11.985034 [THz] =     399.777712 [cm-1]
     freq (    5) =      14.311279 [THz] =     477.372890 [cm-1]
     freq (    6) =      14.311279 [THz] =     477.372890 [cm-1]
 **************************************************************************

     Calculation of q =    0.0000000   0.5000000   0.0000000
 
     Parallelization info
     --------------------
     sticks:   dense  smooth     PW     G-vecs:    dense   smooth      PW
     Min          72      72     23                 1658     1658     306
     Max          73      73     24                 1663     1663     308
     Sum        1165    1165    379                26565    26565    4909
 
     Using Slab Decomposition
 

     Title: 
     phonons of Si in Diamond structure                                         


     bravais-lattice index     =            2
     lattice parameter (alat)  =      10.3352  a.u.
     unit-cell volume          =     275.9921 (a.u.)^3
     number of atoms/cell      =            2
     number of atomic types    =            1
     number of electrons       =         8.00
     number of Kohn-Sham states=            4
     kinetic-energy cutoff     =      80.0000  Ry
     charge density cutoff     =     320.0000  Ry
     Exchange-correlation= PBE
                           (   1   4   3   4   0   0   0)

     celldm(1)=  10.335200  celldm(2)=   0.000000  celldm(3)=   0.000000
     celldm(4)=   0.000000  celldm(5)=   0.000000  celldm(6)=   0.000000

     crystal axes: (cart. coord. in units of alat)
               a(1) = (  -0.500000   0.000000   0.500000 )  
               a(2) = (   0.000000   0.500000   0.500000 )  
               a(3) = (  -0.500000   0.500000   0.000000 )  

     reciprocal axes: (cart. coord. in units 2 pi/alat)
               b(1) = ( -1.000000 -1.000000  1.000000 )  
               b(2) = (  1.000000  1.000000  1.000000 )  
               b(3) = ( -1.000000  1.000000 -1.000000 )  


     PseudoPot. # 1 for Si read from file:
     ../pseudo/Si.pbe-n-kjpaw_psl.1.0.0.UPF
     MD5 check sum: c39c59da582df4a0d9f10159256ea34e
     Pseudo is Projector augmented-wave + core cor, Zval =  4.0
     Generated using &quot;atomic&quot; code by A. Dal Corso  v.6.3
     Shape of augmentation charge: PSQ
     Using radial grid of 1141 points,  6 beta functions with: 
                l(1) =   0
                l(2) =   0
                l(3) =   1
                l(4) =   1
                l(5) =   2
                l(6) =   2
     Q(r) pseudized with 0 coefficients 


     atomic species   valence    mass     pseudopotential
        Si             4.00    28.08500     Si( 1.00)

     48 Sym. Ops., with inversion, found



   Cartesian axes

     site n.     atom                  positions (alat units)
         1           Si  tau(   1) = (   0.0000000   0.0000000   0.0000000  )
         2           Si  tau(   2) = (  -0.2500000   0.2500000   0.2500000  )

     number of k points=  4352

     Number of k-points >= 100: set verbosity='high' to print them.

     Dense  grid:    26565 G-vectors     FFT dimensions: (  48,  48,  48)

     Estimated max dynamical RAM per process >      62.28 MB

     Estimated total dynamical RAM >     996.48 MB

     The potential is recalculated from file :
     ./_ph0/pwscf.save/charge-density

     Starting wfcs are    8 atomic wfcs
     Checking if some PAW data can be deallocated... 

     Band Structure Calculation
     Davidson diagonalization with overlap

     ethr =  1.25E-10,  avg # of iterations = 13.5

     total cpu time spent up to now is      246.7 secs

     End of band structure calculation

     Number of k-points >= 100: set verbosity='high' to print the bands.

     highest occupied level (ev):     5.9607

     phonons of Si in Diamond structure                                         

     bravais-lattice index     =            2
     lattice parameter (alat)  =      10.3352  a.u.
     unit-cell volume          =     275.9921 (a.u.)^3
     number of atoms/cell      =            2
     number of atomic types    =            1
     kinetic-energy cut-off    =      80.0000  Ry
     charge density cut-off    =     320.0000  Ry
     convergence threshold     =      1.0E-14
     beta                      =       0.7000
     number of iterations used =            4
     Exchange-correlation= PBE
                           (   1   4   3   4   0   0   0)


     celldm(1)=   10.33520  celldm(2)=    0.00000  celldm(3)=    0.00000
     celldm(4)=    0.00000  celldm(5)=    0.00000  celldm(6)=    0.00000

     crystal axes: (cart. coord. in units of alat)
               a(1) = ( -0.5000  0.0000  0.5000 )  
               a(2) = (  0.0000  0.5000  0.5000 )  
               a(3) = ( -0.5000  0.5000  0.0000 )  

     reciprocal axes: (cart. coord. in units 2 pi/alat)
               b(1) = ( -1.0000 -1.0000  1.0000 )  
               b(2) = (  1.0000  1.0000  1.0000 )  
               b(3) = ( -1.0000  1.0000 -1.0000 )  


     Atoms inside the unit cell: 

     Cartesian axes

     site n.  atom      mass           positions (alat units)
        1     Si  28.0850   tau(    1) = (    0.00000    0.00000    0.00000  )
        2     Si  28.0850   tau(    2) = (   -0.25000    0.25000    0.25000  )

     Computing dynamical matrix for 
                    q = (   0.0000000   0.5000000   0.0000000 )
 
      8 Sym.Ops. (no q -> -q+G )


     G cutoff =  865.8208  (   1659 G-vectors)     FFT grid: ( 48, 48, 48)
     number of k points=  4352

     PseudoPot. # 1 for Si read from file:
     ../pseudo/Si.pbe-n-kjpaw_psl.1.0.0.UPF
     MD5 check sum: c39c59da582df4a0d9f10159256ea34e
     Pseudo is Projector augmented-wave + core cor, Zval =  4.0
     Generated using &quot;atomic&quot; code by A. Dal Corso  v.6.3
     Shape of augmentation charge: PSQ
     Using radial grid of 1141 points,  6 beta functions with: 
                l(1) =   0
                l(2) =   0
                l(3) =   1
                l(4) =   1
                l(5) =   2
                l(6) =   2
     Q(r) pseudized with 0 coefficients 


     Mode symmetry, C_4v (4mm)  point group:


     Atomic displacements:
     There are    4 irreducible representations

     Representation     1      1 modes -  To be done

     Representation     2      1 modes -  To be done

     Representation     3      2 modes -  To be done

     Representation     4      2 modes -  To be done



     Alpha used in Ewald sum =   2.8000
     PHONON       :  25m13.79s CPU  55m 8.83s WALL



     Representation #   1 mode #   1

     Self-consistent Calculation

      iter #   1 total cpu time :  3332.8 secs   av.it.:   6.4
      thresh= 1.000E-02 alpha_mix =  0.700 |ddv_scf|^2 =  2.157E-04

      iter #   2 total cpu time :  3364.3 secs   av.it.:   9.5
      thresh= 1.469E-03 alpha_mix =  0.700 |ddv_scf|^2 =  2.888E-03

      iter #   3 total cpu time :  3391.8 secs   av.it.:   7.9
      thresh= 5.374E-03 alpha_mix =  0.700 |ddv_scf|^2 =  7.019E-09

      iter #   4 total cpu time :  3423.9 secs   av.it.:   9.8
      thresh= 8.378E-06 alpha_mix =  0.700 |ddv_scf|^2 =  1.182E-09

      iter #   5 total cpu time :  3455.2 secs   av.it.:   9.5
      thresh= 3.438E-06 alpha_mix =  0.700 |ddv_scf|^2 =  5.261E-11

      iter #   6 total cpu time :  3487.5 secs   av.it.:   9.8
      thresh= 7.253E-07 alpha_mix =  0.700 |ddv_scf|^2 =  1.611E-12

      iter #   7 total cpu time :  3518.0 secs   av.it.:   9.1
      thresh= 1.269E-07 alpha_mix =  0.700 |ddv_scf|^2 =  2.050E-14

      iter #   8 total cpu time :  3547.9 secs   av.it.:   8.9
      thresh= 1.432E-08 alpha_mix =  0.700 |ddv_scf|^2 =  2.910E-16

     End of self-consistent calculation

     Convergence has been achieved 


     Representation #   2 mode #   2

     Self-consistent Calculation

      iter #   1 total cpu time :  3569.5 secs   av.it.:   5.4
      thresh= 1.000E-02 alpha_mix =  0.700 |ddv_scf|^2 =  3.797E-07

      iter #   2 total cpu time :  3603.3 secs   av.it.:  10.4
      thresh= 6.162E-05 alpha_mix =  0.700 |ddv_scf|^2 =  9.860E-08

      iter #   3 total cpu time :  3636.5 secs   av.it.:  10.2
      thresh= 3.140E-05 alpha_mix =  0.700 |ddv_scf|^2 =  3.147E-09

      iter #   4 total cpu time :  3669.1 secs   av.it.:   9.9
      thresh= 5.610E-06 alpha_mix =  0.700 |ddv_scf|^2 =  1.368E-10

      iter #   5 total cpu time :  3701.6 secs   av.it.:   9.9
      thresh= 1.170E-06 alpha_mix =  0.700 |ddv_scf|^2 =  7.283E-12

      iter #   6 total cpu time :  3732.2 secs   av.it.:   9.1
      thresh= 2.699E-07 alpha_mix =  0.700 |ddv_scf|^2 =  4.792E-15

     End of self-consistent calculation

     Convergence has been achieved 


     Representation #   3 modes #   3   4

     Self-consistent Calculation

      iter #   1 total cpu time :  3776.1 secs   av.it.:   5.6
      thresh= 1.000E-02 alpha_mix =  0.700 |ddv_scf|^2 =  5.841E-08

      iter #   2 total cpu time :  3848.0 secs   av.it.:  11.2
      thresh= 2.417E-05 alpha_mix =  0.700 |ddv_scf|^2 =  7.337E-09

      iter #   3 total cpu time :  3918.8 secs   av.it.:  11.0
      thresh= 8.566E-06 alpha_mix =  0.700 |ddv_scf|^2 =  4.639E-10

      iter #   4 total cpu time :  3988.3 secs   av.it.:  10.8
      thresh= 2.154E-06 alpha_mix =  0.700 |ddv_scf|^2 =  1.470E-11

      iter #   5 total cpu time :  4052.6 secs   av.it.:   9.8
      thresh= 3.835E-07 alpha_mix =  0.700 |ddv_scf|^2 =  9.829E-15

     End of self-consistent calculation

     Convergence has been achieved 


     Representation #   4 modes #   5   6

     Self-consistent Calculation

      iter #   1 total cpu time :  4097.1 secs   av.it.:   5.7
      thresh= 1.000E-02 alpha_mix =  0.700 |ddv_scf|^2 =  7.742E-08

      iter #   2 total cpu time :  4168.7 secs   av.it.:  11.2
      thresh= 2.782E-05 alpha_mix =  0.700 |ddv_scf|^2 =  1.023E-08

      iter #   3 total cpu time :  4239.1 secs   av.it.:  11.0
      thresh= 1.011E-05 alpha_mix =  0.700 |ddv_scf|^2 =  4.832E-10

      iter #   4 total cpu time :  4308.2 secs   av.it.:  10.7
      thresh= 2.198E-06 alpha_mix =  0.700 |ddv_scf|^2 =  1.514E-11

      iter #   5 total cpu time :  4372.0 secs   av.it.:   9.7
      thresh= 3.890E-07 alpha_mix =  0.700 |ddv_scf|^2 =  1.060E-14

      iter #   6 total cpu time :  4441.6 secs   av.it.:  10.8
      thresh= 1.030E-08 alpha_mix =  0.700 |ddv_scf|^2 =  2.106E-16

     End of self-consistent calculation

     Convergence has been achieved 
 
     Number of q in the star =    6
     List of q in the star:
          1   0.000000000   0.500000000   0.000000000
          2   0.000000000  -0.500000000   0.000000000
          3   0.500000000   0.000000000   0.000000000
          4   0.000000000   0.000000000   0.500000000
          5   0.000000000   0.000000000  -0.500000000
          6  -0.500000000   0.000000000   0.000000000

     Diagonalizing the dynamical matrix

     q = (    0.000000000   0.500000000   0.000000000 ) 

 **************************************************************************
     freq (    1) =       3.804776 [THz] =     126.913674 [cm-1]
     freq (    2) =       3.804776 [THz] =     126.913674 [cm-1]
     freq (    3) =       7.065265 [THz] =     235.671859 [cm-1]
     freq (    4) =      13.850016 [THz] =     461.986798 [cm-1]
     freq (    5) =      13.850016 [THz] =     461.986798 [cm-1]
     freq (    6) =      14.462571 [THz] =     482.419452 [cm-1]
 **************************************************************************

     Mode symmetry, C_4v (4mm)  point group:

     freq (   1-   2) =        126.9  [cm-1]   --> E    G_5 D_5       
     freq (   3-   3) =        235.7  [cm-1]   --> A_1  G_1 D_1       
     freq (   4-   5) =        462.0  [cm-1]   --> E    G_5 D_5       
     freq (   6-   6) =        482.4  [cm-1]   --> B_2  G_4 D_2'      

     Calculation of q =    0.7500000  -0.2500000   0.7500000
 
     Parallelization info
     --------------------
     sticks:   dense  smooth     PW     G-vecs:    dense   smooth      PW
     Min          72      72     25                 1658     1658     332
     Max          73      73     27                 1663     1663     334
     Sum        1165    1165    409                26565    26565    5329
 
     Using Slab Decomposition
 

     Title: 
     phonons of Si in Diamond structure                                         


     bravais-lattice index     =            2
     lattice parameter (alat)  =      10.3352  a.u.
     unit-cell volume          =     275.9921 (a.u.)^3
     number of atoms/cell      =            2
     number of atomic types    =            1
     number of electrons       =         8.00
     number of Kohn-Sham states=            4
     kinetic-energy cutoff     =      80.0000  Ry
     charge density cutoff     =     320.0000  Ry
     Exchange-correlation= PBE
                           (   1   4   3   4   0   0   0)

     celldm(1)=  10.335200  celldm(2)=   0.000000  celldm(3)=   0.000000
     celldm(4)=   0.000000  celldm(5)=   0.000000  celldm(6)=   0.000000

     crystal axes: (cart. coord. in units of alat)
               a(1) = (  -0.500000   0.000000   0.500000 )  
               a(2) = (   0.000000   0.500000   0.500000 )  
               a(3) = (  -0.500000   0.500000   0.000000 )  

     reciprocal axes: (cart. coord. in units 2 pi/alat)
               b(1) = ( -1.000000 -1.000000  1.000000 )  
               b(2) = (  1.000000  1.000000  1.000000 )  
               b(3) = ( -1.000000  1.000000 -1.000000 )  


     PseudoPot. # 1 for Si read from file:
     ../pseudo/Si.pbe-n-kjpaw_psl.1.0.0.UPF
     MD5 check sum: c39c59da582df4a0d9f10159256ea34e
     Pseudo is Projector augmented-wave + core cor, Zval =  4.0
     Generated using &quot;atomic&quot; code by A. Dal Corso  v.6.3
     Shape of augmentation charge: PSQ
     Using radial grid of 1141 points,  6 beta functions with: 
                l(1) =   0
                l(2) =   0
                l(3) =   1
                l(4) =   1
                l(5) =   2
                l(6) =   2
     Q(r) pseudized with 0 coefficients 


     atomic species   valence    mass     pseudopotential
        Si             4.00    28.08500     Si( 1.00)

     48 Sym. Ops., with inversion, found



   Cartesian axes

     site n.     atom                  positions (alat units)
         1           Si  tau(   1) = (   0.0000000   0.0000000   0.0000000  )
         2           Si  tau(   2) = (  -0.2500000   0.2500000   0.2500000  )

     number of k points= 16896

     Number of k-points >= 100: set verbosity='high' to print them.

     Dense  grid:    26565 G-vectors     FFT dimensions: (  48,  48,  48)

     Estimated max dynamical RAM per process >     221.56 MB

     Estimated total dynamical RAM >       3.46 GB

     The potential is recalculated from file :
     ./_ph0/pwscf.save/charge-density

     Starting wfcs are    8 atomic wfcs
     Checking if some PAW data can be deallocated... 

     Band Structure Calculation
     Davidson diagonalization with overlap

     ethr =  1.25E-10,  avg # of iterations = 13.4

     total cpu time spent up to now is      561.4 secs

     End of band structure calculation

     Number of k-points >= 100: set verbosity='high' to print the bands.

     highest occupied level (ev):     5.9607

     phonons of Si in Diamond structure                                         

     bravais-lattice index     =            2
     lattice parameter (alat)  =      10.3352  a.u.
     unit-cell volume          =     275.9921 (a.u.)^3
     number of atoms/cell      =            2
     number of atomic types    =            1
     kinetic-energy cut-off    =      80.0000  Ry
     charge density cut-off    =     320.0000  Ry
     convergence threshold     =      1.0E-14
     beta                      =       0.7000
     number of iterations used =            4
     Exchange-correlation= PBE
                           (   1   4   3   4   0   0   0)


     celldm(1)=   10.33520  celldm(2)=    0.00000  celldm(3)=    0.00000
     celldm(4)=    0.00000  celldm(5)=    0.00000  celldm(6)=    0.00000

     crystal axes: (cart. coord. in units of alat)
               a(1) = ( -0.5000  0.0000  0.5000 )  
               a(2) = (  0.0000  0.5000  0.5000 )  
               a(3) = ( -0.5000  0.5000  0.0000 )  

     reciprocal axes: (cart. coord. in units 2 pi/alat)
               b(1) = ( -1.0000 -1.0000  1.0000 )  
               b(2) = (  1.0000  1.0000  1.0000 )  
               b(3) = ( -1.0000  1.0000 -1.0000 )  


     Atoms inside the unit cell: 

     Cartesian axes

     site n.  atom      mass           positions (alat units)
        1     Si  28.0850   tau(    1) = (    0.00000    0.00000    0.00000  )
        2     Si  28.0850   tau(    2) = (   -0.25000    0.25000    0.25000  )

     Computing dynamical matrix for 
                    q = (   0.7500000  -0.2500000   0.7500000 )
 
      2 Sym.Ops. (no q -> -q+G )


     G cutoff =  865.8208  (   1659 G-vectors)     FFT grid: ( 48, 48, 48)
     number of k points= 16896

     PseudoPot. # 1 for Si read from file:
     ../pseudo/Si.pbe-n-kjpaw_psl.1.0.0.UPF
     MD5 check sum: c39c59da582df4a0d9f10159256ea34e
     Pseudo is Projector augmented-wave + core cor, Zval =  4.0
     Generated using &quot;atomic&quot; code by A. Dal Corso  v.6.3
     Shape of augmentation charge: PSQ
     Using radial grid of 1141 points,  6 beta functions with: 
                l(1) =   0
                l(2) =   0
                l(3) =   1
                l(4) =   1
                l(5) =   2
                l(6) =   2
     Q(r) pseudized with 0 coefficients 


     Mode symmetry, C_s (m)     point group:


     Atomic displacements:
     There are    6 irreducible representations

     Representation     1      1 modes -  To be done

     Representation     2      1 modes -  To be done

     Representation     3      1 modes -  To be done

     Representation     4      1 modes -  To be done

     Representation     5      1 modes -  To be done

     Representation     6      1 modes -  To be done



     Alpha used in Ewald sum =   2.8000
     PHONON       :  36m36.28s CPU      1h19m WALL



     Representation #   1 mode #   1

     Self-consistent Calculation

      iter #   1 total cpu time :  4891.2 secs   av.it.:   6.2
      thresh= 1.000E-02 alpha_mix =  0.700 |ddv_scf|^2 =  8.831E-06

      iter #   2 total cpu time :  5023.7 secs   av.it.:  10.4
      thresh= 2.972E-04 alpha_mix =  0.700 |ddv_scf|^2 =  2.534E-05

      iter #   3 total cpu time :  5144.8 secs   av.it.:   9.3
      thresh= 5.034E-04 alpha_mix =  0.700 |ddv_scf|^2 =  1.030E-07

      iter #   4 total cpu time :  5272.2 secs   av.it.:   9.9
      thresh= 3.210E-05 alpha_mix =  0.700 |ddv_scf|^2 =  3.885E-09

      iter #   5 total cpu time :  5401.2 secs   av.it.:  10.1
      thresh= 6.233E-06 alpha_mix =  0.700 |ddv_scf|^2 =  3.112E-10

      iter #   6 total cpu time :  5533.4 secs   av.it.:  10.3
      thresh= 1.764E-06 alpha_mix =  0.700 |ddv_scf|^2 =  2.830E-11

      iter #   7 total cpu time :  5661.7 secs   av.it.:  10.0
      thresh= 5.319E-07 alpha_mix =  0.700 |ddv_scf|^2 =  1.139E-12

      iter #   8 total cpu time :  5788.2 secs   av.it.:   9.8
      thresh= 1.067E-07 alpha_mix =  0.700 |ddv_scf|^2 =  2.063E-13

      iter #   9 total cpu time :  5919.1 secs   av.it.:  10.3
      thresh= 4.542E-08 alpha_mix =  0.700 |ddv_scf|^2 =  3.898E-13

      iter #  10 total cpu time :  6040.3 secs   av.it.:   9.3
      thresh= 6.243E-08 alpha_mix =  0.700 |ddv_scf|^2 =  8.740E-15

     End of self-consistent calculation

     Convergence has been achieved 


     Representation #   2 mode #   2

     Self-consistent Calculation

      iter #   1 total cpu time :  6131.8 secs   av.it.:   6.1
      thresh= 1.000E-02 alpha_mix =  0.700 |ddv_scf|^2 =  6.000E-06

      iter #   2 total cpu time :  6264.6 secs   av.it.:  10.4
      thresh= 2.450E-04 alpha_mix =  0.700 |ddv_scf|^2 =  1.711E-05

      iter #   3 total cpu time :  6385.6 secs   av.it.:   9.3
      thresh= 4.136E-04 alpha_mix =  0.700 |ddv_scf|^2 =  6.602E-08

      iter #   4 total cpu time :  6514.8 secs   av.it.:  10.1
      thresh= 2.569E-05 alpha_mix =  0.700 |ddv_scf|^2 =  4.461E-09

      iter #   5 total cpu time :  6643.7 secs   av.it.:  10.1
      thresh= 6.679E-06 alpha_mix =  0.700 |ddv_scf|^2 =  5.280E-10

      iter #   6 total cpu time :  6773.8 secs   av.it.:  10.2
      thresh= 2.298E-06 alpha_mix =  0.700 |ddv_scf|^2 =  2.973E-11

      iter #   7 total cpu time :  6901.8 secs   av.it.:  10.0
      thresh= 5.452E-07 alpha_mix =  0.700 |ddv_scf|^2 =  1.306E-12

      iter #   8 total cpu time :  7032.5 secs   av.it.:  10.2
      thresh= 1.143E-07 alpha_mix =  0.700 |ddv_scf|^2 =  6.014E-13

      iter #   9 total cpu time :  7159.3 secs   av.it.:   9.9
      thresh= 7.755E-08 alpha_mix =  0.700 |ddv_scf|^2 =  3.941E-13

      iter #  10 total cpu time :  7284.1 secs   av.it.:   9.7
      thresh= 6.277E-08 alpha_mix =  0.700 |ddv_scf|^2 =  1.307E-14

      iter #  11 total cpu time :  7413.0 secs   av.it.:  10.1
      thresh= 1.143E-08 alpha_mix =  0.700 |ddv_scf|^2 =  1.104E-15

     End of self-consistent calculation

     Convergence has been achieved 


     Representation #   3 mode #   3

     Self-consistent Calculation

      iter #   1 total cpu time :  7504.0 secs   av.it.:   6.1
      thresh= 1.000E-02 alpha_mix =  0.700 |ddv_scf|^2 =  4.535E-06

      iter #   2 total cpu time :  7636.4 secs   av.it.:  10.4
      thresh= 2.130E-04 alpha_mix =  0.700 |ddv_scf|^2 =  1.138E-05

      iter #   3 total cpu time :  7757.8 secs   av.it.:   9.3
      thresh= 3.373E-04 alpha_mix =  0.700 |ddv_scf|^2 =  1.211E-07

      iter #   4 total cpu time :  7883.9 secs   av.it.:   9.8
      thresh= 3.479E-05 alpha_mix =  0.700 |ddv_scf|^2 =  4.190E-09

      iter #   5 total cpu time :  8013.8 secs   av.it.:  10.2
      thresh= 6.473E-06 alpha_mix =  0.700 |ddv_scf|^2 =  7.942E-10

      iter #   6 total cpu time :  8143.1 secs   av.it.:  10.1
      thresh= 2.818E-06 alpha_mix =  0.700 |ddv_scf|^2 =  2.403E-11

      iter #   7 total cpu time :  8268.8 secs   av.it.:   9.8
      thresh= 4.902E-07 alpha_mix =  0.700 |ddv_scf|^2 =  1.134E-12

      iter #   8 total cpu time :  8394.5 secs   av.it.:   9.8
      thresh= 1.065E-07 alpha_mix =  0.700 |ddv_scf|^2 =  2.881E-14

      iter #   9 total cpu time :  8528.8 secs   av.it.:  10.6
      thresh= 1.697E-08 alpha_mix =  0.700 |ddv_scf|^2 =  2.413E-14

      iter #  10 total cpu time :  8654.4 secs   av.it.:   9.7
      thresh= 1.553E-08 alpha_mix =  0.700 |ddv_scf|^2 =  3.867E-15

     End of self-consistent calculation

     Convergence has been achieved 


     Representation #   4 mode #   4

     Self-consistent Calculation

      iter #   1 total cpu time :  8743.3 secs   av.it.:   5.8
      thresh= 1.000E-02 alpha_mix =  0.700 |ddv_scf|^2 =  1.705E-06

      iter #   2 total cpu time :  8877.3 secs   av.it.:  10.6
      thresh= 1.306E-04 alpha_mix =  0.700 |ddv_scf|^2 =  3.163E-06

      iter #   3 total cpu time :  9000.4 secs   av.it.:   9.5
      thresh= 1.778E-04 alpha_mix =  0.700 |ddv_scf|^2 =  9.600E-08

      iter #   4 total cpu time :  9127.9 secs   av.it.:   9.9
      thresh= 3.098E-05 alpha_mix =  0.700 |ddv_scf|^2 =  4.102E-09

      iter #   5 total cpu time :  9257.3 secs   av.it.:  10.1
      thresh= 6.405E-06 alpha_mix =  0.700 |ddv_scf|^2 =  8.992E-10

      iter #   6 total cpu time :  9386.9 secs   av.it.:  10.1
      thresh= 2.999E-06 alpha_mix =  0.700 |ddv_scf|^2 =  3.040E-11

      iter #   7 total cpu time :  9514.6 secs   av.it.:   9.9
      thresh= 5.514E-07 alpha_mix =  0.700 |ddv_scf|^2 =  1.294E-12

      iter #   8 total cpu time :  9644.1 secs   av.it.:  10.2
      thresh= 1.137E-07 alpha_mix =  0.700 |ddv_scf|^2 =  3.071E-13

      iter #   9 total cpu time :  9772.8 secs   av.it.:  10.1
      thresh= 5.541E-08 alpha_mix =  0.700 |ddv_scf|^2 =  2.134E-13

      iter #  10 total cpu time :  9897.5 secs   av.it.:   9.6
      thresh= 4.620E-08 alpha_mix =  0.700 |ddv_scf|^2 =  1.215E-14

      iter #  11 total cpu time : 10027.1 secs   av.it.:  10.1
      thresh= 1.102E-08 alpha_mix =  0.700 |ddv_scf|^2 =  9.278E-16

     End of self-consistent calculation

     Convergence has been achieved 


     Representation #   5 mode #   5

     Self-consistent Calculation

      iter #   1 total cpu time : 10113.5 secs   av.it.:   5.6
      thresh= 1.000E-02 alpha_mix =  0.700 |ddv_scf|^2 =  3.168E-07

      iter #   2 total cpu time : 10246.4 secs   av.it.:  10.4
      thresh= 5.628E-05 alpha_mix =  0.700 |ddv_scf|^2 =  4.838E-08

      iter #   3 total cpu time : 10376.4 secs   av.it.:  10.2
      thresh= 2.200E-05 alpha_mix =  0.700 |ddv_scf|^2 =  2.063E-09

      iter #   4 total cpu time : 10503.5 secs   av.it.:   9.9
      thresh= 4.542E-06 alpha_mix =  0.700 |ddv_scf|^2 =  6.259E-11

      iter #   5 total cpu time : 10620.4 secs   av.it.:   8.9
      thresh= 7.911E-07 alpha_mix =  0.700 |ddv_scf|^2 =  3.994E-14

      iter #   6 total cpu time : 10752.4 secs   av.it.:  10.4
      thresh= 1.998E-08 alpha_mix =  0.700 |ddv_scf|^2 =  4.152E-16

     End of self-consistent calculation

     Convergence has been achieved 


     Representation #   6 mode #   6

     Self-consistent Calculation

      iter #   1 total cpu time : 10838.7 secs   av.it.:   5.6
      thresh= 1.000E-02 alpha_mix =  0.700 |ddv_scf|^2 =  3.168E-07

      iter #   2 total cpu time : 10971.6 secs   av.it.:  10.4
      thresh= 5.628E-05 alpha_mix =  0.700 |ddv_scf|^2 =  4.838E-08

      iter #   3 total cpu time : 11101.5 secs   av.it.:  10.2
      thresh= 2.200E-05 alpha_mix =  0.700 |ddv_scf|^2 =  2.063E-09

      iter #   4 total cpu time : 11228.5 secs   av.it.:   9.9
      thresh= 4.542E-06 alpha_mix =  0.700 |ddv_scf|^2 =  6.259E-11

      iter #   5 total cpu time : 11345.4 secs   av.it.:   8.9
      thresh= 7.911E-07 alpha_mix =  0.700 |ddv_scf|^2 =  3.994E-14

      iter #   6 total cpu time : 11477.4 secs   av.it.:  10.4
      thresh= 1.998E-08 alpha_mix =  0.700 |ddv_scf|^2 =  4.152E-16

     End of self-consistent calculation

     Convergence has been achieved 
 
     Number of q in the star =   24
     List of q in the star:
          1   0.750000000  -0.250000000   0.750000000
          2   0.750000000  -0.250000000  -0.750000000
          3  -0.750000000  -0.250000000  -0.750000000
          4  -0.750000000  -0.250000000   0.750000000
          5  -0.750000000   0.250000000  -0.750000000
          6  -0.250000000   0.750000000  -0.750000000
          7  -0.750000000   0.750000000  -0.250000000
          8   0.750000000   0.250000000   0.750000000
          9  -0.750000000   0.250000000   0.750000000
         10   0.750000000   0.250000000  -0.750000000
         11  -0.750000000   0.750000000   0.250000000
         12  -0.250000000   0.750000000   0.750000000
         13   0.250000000   0.750000000  -0.750000000
         14  -0.250000000  -0.750000000  -0.750000000
         15   0.750000000   0.750000000  -0.250000000
         16   0.750000000  -0.750000000   0.250000000
         17  -0.750000000  -0.750000000  -0.250000000
         18   0.250000000  -0.750000000   0.750000000
         19  -0.750000000  -0.750000000   0.250000000
         20   0.250000000   0.750000000   0.750000000
         21  -0.250000000  -0.750000000   0.750000000
         22   0.750000000   0.750000000   0.250000000
         23   0.250000000  -0.750000000  -0.750000000
         24   0.750000000  -0.750000000  -0.250000000

     Diagonalizing the dynamical matrix

     q = (    0.750000000  -0.250000000   0.750000000 ) 

 **************************************************************************
     freq (    1) =       4.252918 [THz] =     141.862066 [cm-1]
     freq (    2) =       5.878490 [THz] =     196.085322 [cm-1]
     freq (    3) =       9.373531 [THz] =     312.667354 [cm-1]
     freq (    4) =      12.087056 [THz] =     403.180800 [cm-1]
     freq (    5) =      13.614449 [THz] =     454.129128 [cm-1]
     freq (    6) =      14.018848 [THz] =     467.618425 [cm-1]
 **************************************************************************

     Mode symmetry, C_s (m)     point group:

     freq (   1-   1) =        141.9  [cm-1]   --> A''                
     freq (   2-   2) =        196.1  [cm-1]   --> A'                 
     freq (   3-   3) =        312.7  [cm-1]   --> A'                 
     freq (   4-   4) =        403.2  [cm-1]   --> A'                 
     freq (   5-   5) =        454.1  [cm-1]   --> A''                
     freq (   6-   6) =        467.6  [cm-1]   --> A'                 

     Calculation of q =    0.5000000   0.0000000   0.5000000
 
     Parallelization info
     --------------------
     sticks:   dense  smooth     PW     G-vecs:    dense   smooth      PW
     Min          72      72     23                 1658     1658     312
     Max          73      73     24                 1663     1663     316
     Sum        1165    1165    379                26565    26565    5029
 
     Using Slab Decomposition
 

     Title: 
     phonons of Si in Diamond structure                                         


     bravais-lattice index     =            2
     lattice parameter (alat)  =      10.3352  a.u.
     unit-cell volume          =     275.9921 (a.u.)^3
     number of atoms/cell      =            2
     number of atomic types    =            1
     number of electrons       =         8.00
     number of Kohn-Sham states=            4
     kinetic-energy cutoff     =      80.0000  Ry
     charge density cutoff     =     320.0000  Ry
     Exchange-correlation= PBE
                           (   1   4   3   4   0   0   0)

     celldm(1)=  10.335200  celldm(2)=   0.000000  celldm(3)=   0.000000
     celldm(4)=   0.000000  celldm(5)=   0.000000  celldm(6)=   0.000000

     crystal axes: (cart. coord. in units of alat)
               a(1) = (  -0.500000   0.000000   0.500000 )  
               a(2) = (   0.000000   0.500000   0.500000 )  
               a(3) = (  -0.500000   0.500000   0.000000 )  

     reciprocal axes: (cart. coord. in units 2 pi/alat)
               b(1) = ( -1.000000 -1.000000  1.000000 )  
               b(2) = (  1.000000  1.000000  1.000000 )  
               b(3) = ( -1.000000  1.000000 -1.000000 )  


     PseudoPot. # 1 for Si read from file:
     ../pseudo/Si.pbe-n-kjpaw_psl.1.0.0.UPF
     MD5 check sum: c39c59da582df4a0d9f10159256ea34e
     Pseudo is Projector augmented-wave + core cor, Zval =  4.0
     Generated using &quot;atomic&quot; code by A. Dal Corso  v.6.3
     Shape of augmentation charge: PSQ
     Using radial grid of 1141 points,  6 beta functions with: 
                l(1) =   0
                l(2) =   0
                l(3) =   1
                l(4) =   1
                l(5) =   2
                l(6) =   2
     Q(r) pseudized with 0 coefficients 


     atomic species   valence    mass     pseudopotential
        Si             4.00    28.08500     Si( 1.00)

     48 Sym. Ops., with inversion, found



   Cartesian axes

     site n.     atom                  positions (alat units)
         1           Si  tau(   1) = (   0.0000000   0.0000000   0.0000000  )
         2           Si  tau(   2) = (  -0.2500000   0.2500000   0.2500000  )

     number of k points=  8448

     Number of k-points >= 100: set verbosity='high' to print them.

     Dense  grid:    26565 G-vectors     FFT dimensions: (  48,  48,  48)

     Estimated max dynamical RAM per process >     114.29 MB

     Estimated total dynamical RAM >       1.79 GB

     The potential is recalculated from file :
     ./_ph0/pwscf.save/charge-density

     Starting wfcs are    8 atomic wfcs
     Checking if some PAW data can be deallocated... 

     Band Structure Calculation
     Davidson diagonalization with overlap

     ethr =  1.25E-10,  avg # of iterations = 13.4

     total cpu time spent up to now is      717.4 secs

     End of band structure calculation

     Number of k-points >= 100: set verbosity='high' to print the bands.

     highest occupied level (ev):     5.9607

     phonons of Si in Diamond structure                                         

     bravais-lattice index     =            2
     lattice parameter (alat)  =      10.3352  a.u.
     unit-cell volume          =     275.9921 (a.u.)^3
     number of atoms/cell      =            2
     number of atomic types    =            1
     kinetic-energy cut-off    =      80.0000  Ry
     charge density cut-off    =     320.0000  Ry
     convergence threshold     =      1.0E-14
     beta                      =       0.7000
     number of iterations used =            4
     Exchange-correlation= PBE
                           (   1   4   3   4   0   0   0)


     celldm(1)=   10.33520  celldm(2)=    0.00000  celldm(3)=    0.00000
     celldm(4)=    0.00000  celldm(5)=    0.00000  celldm(6)=    0.00000

     crystal axes: (cart. coord. in units of alat)
               a(1) = ( -0.5000  0.0000  0.5000 )  
               a(2) = (  0.0000  0.5000  0.5000 )  
               a(3) = ( -0.5000  0.5000  0.0000 )  

     reciprocal axes: (cart. coord. in units 2 pi/alat)
               b(1) = ( -1.0000 -1.0000  1.0000 )  
               b(2) = (  1.0000  1.0000  1.0000 )  
               b(3) = ( -1.0000  1.0000 -1.0000 )  


     Atoms inside the unit cell: 

     Cartesian axes

     site n.  atom      mass           positions (alat units)
        1     Si  28.0850   tau(    1) = (    0.00000    0.00000    0.00000  )
        2     Si  28.0850   tau(    2) = (   -0.25000    0.25000    0.25000  )

     Computing dynamical matrix for 
                    q = (   0.5000000   0.0000000   0.5000000 )
 
      4 Sym.Ops. (no q -> -q+G )


     G cutoff =  865.8208  (   1659 G-vectors)     FFT grid: ( 48, 48, 48)
     number of k points=  8448

     PseudoPot. # 1 for Si read from file:
     ../pseudo/Si.pbe-n-kjpaw_psl.1.0.0.UPF
     MD5 check sum: c39c59da582df4a0d9f10159256ea34e
     Pseudo is Projector augmented-wave + core cor, Zval =  4.0
     Generated using &quot;atomic&quot; code by A. Dal Corso  v.6.3
     Shape of augmentation charge: PSQ
     Using radial grid of 1141 points,  6 beta functions with: 
                l(1) =   0
                l(2) =   0
                l(3) =   1
                l(4) =   1
                l(5) =   2
                l(6) =   2
     Q(r) pseudized with 0 coefficients 


     Mode symmetry, C_2v (mm2)  point group:


     Atomic displacements:
     There are    6 irreducible representations

     Representation     1      1 modes -  To be done

     Representation     2      1 modes -  To be done

     Representation     3      1 modes -  To be done

     Representation     4      1 modes -  To be done

     Representation     5      1 modes -  To be done

     Representation     6      1 modes -  To be done



     Alpha used in Ewald sum =   2.8000
     PHONON       :      1h28m CPU      3h14m WALL



     Representation #   1 mode #   1

     Self-consistent Calculation

      iter #   1 total cpu time : 11699.6 secs   av.it.:   5.9
      thresh= 1.000E-02 alpha_mix =  0.700 |ddv_scf|^2 =  5.176E-06

      iter #   2 total cpu time : 11764.5 secs   av.it.:  10.2
      thresh= 2.275E-04 alpha_mix =  0.700 |ddv_scf|^2 =  2.450E-05

      iter #   3 total cpu time : 11822.0 secs   av.it.:   8.8
      thresh= 4.950E-04 alpha_mix =  0.700 |ddv_scf|^2 =  6.809E-08

      iter #   4 total cpu time : 11885.8 secs   av.it.:  10.0
      thresh= 2.609E-05 alpha_mix =  0.700 |ddv_scf|^2 =  1.910E-09

      iter #   5 total cpu time : 11948.7 secs   av.it.:   9.9
      thresh= 4.370E-06 alpha_mix =  0.700 |ddv_scf|^2 =  6.118E-11

      iter #   6 total cpu time : 12007.9 secs   av.it.:   9.1
      thresh= 7.822E-07 alpha_mix =  0.700 |ddv_scf|^2 =  9.499E-13

      iter #   7 total cpu time : 12067.2 secs   av.it.:   9.1
      thresh= 9.746E-08 alpha_mix =  0.700 |ddv_scf|^2 =  2.499E-13

      iter #   8 total cpu time : 12130.1 secs   av.it.:   9.9
      thresh= 4.999E-08 alpha_mix =  0.700 |ddv_scf|^2 =  6.329E-13

      iter #   9 total cpu time : 12188.2 secs   av.it.:   8.9
      thresh= 7.956E-08 alpha_mix =  0.700 |ddv_scf|^2 =  1.968E-15

     End of self-consistent calculation

     Convergence has been achieved 


     Representation #   2 mode #   2

     Self-consistent Calculation

      iter #   1 total cpu time : 12236.0 secs   av.it.:   6.5
      thresh= 1.000E-02 alpha_mix =  0.700 |ddv_scf|^2 =  3.832E-05

      iter #   2 total cpu time : 12300.1 secs   av.it.:  10.1
      thresh= 6.191E-04 alpha_mix =  0.700 |ddv_scf|^2 =  2.030E-04

      iter #   3 total cpu time : 12357.4 secs   av.it.:   8.7
      thresh= 1.425E-03 alpha_mix =  0.700 |ddv_scf|^2 =  5.546E-08

      iter #   4 total cpu time : 12421.9 secs   av.it.:  10.2
      thresh= 2.355E-05 alpha_mix =  0.700 |ddv_scf|^2 =  2.559E-09

      iter #   5 total cpu time : 12485.0 secs   av.it.:   9.9
      thresh= 5.059E-06 alpha_mix =  0.700 |ddv_scf|^2 =  8.750E-11

      iter #   6 total cpu time : 12544.9 secs   av.it.:   9.3
      thresh= 9.354E-07 alpha_mix =  0.700 |ddv_scf|^2 =  2.340E-12

      iter #   7 total cpu time : 12604.7 secs   av.it.:   9.2
      thresh= 1.530E-07 alpha_mix =  0.700 |ddv_scf|^2 =  3.534E-13

      iter #   8 total cpu time : 12662.6 secs   av.it.:   8.8
      thresh= 5.945E-08 alpha_mix =  0.700 |ddv_scf|^2 =  3.308E-14

      iter #   9 total cpu time : 12725.2 secs   av.it.:   9.8
      thresh= 1.819E-08 alpha_mix =  0.700 |ddv_scf|^2 =  6.987E-14

      iter #  10 total cpu time : 12783.2 secs   av.it.:   8.9
      thresh= 2.643E-08 alpha_mix =  0.700 |ddv_scf|^2 =  1.395E-16

     End of self-consistent calculation

     Convergence has been achieved 


     Representation #   3 mode #   3

     Self-consistent Calculation

      iter #   1 total cpu time : 12826.4 secs   av.it.:   5.6
      thresh= 1.000E-02 alpha_mix =  0.700 |ddv_scf|^2 =  3.009E-07

      iter #   2 total cpu time : 12892.0 secs   av.it.:  10.3
      thresh= 5.486E-05 alpha_mix =  0.700 |ddv_scf|^2 =  3.086E-08

      iter #   3 total cpu time : 12956.5 secs   av.it.:  10.2
      thresh= 1.757E-05 alpha_mix =  0.700 |ddv_scf|^2 =  1.685E-09

      iter #   4 total cpu time : 13018.0 secs   av.it.:   9.5
      thresh= 4.104E-06 alpha_mix =  0.700 |ddv_scf|^2 =  5.366E-11

      iter #   5 total cpu time : 13074.3 secs   av.it.:   8.6
      thresh= 7.326E-07 alpha_mix =  0.700 |ddv_scf|^2 =  1.401E-14

      iter #   6 total cpu time : 13138.7 secs   av.it.:  10.1
      thresh= 1.184E-08 alpha_mix =  0.700 |ddv_scf|^2 =  2.366E-16

     End of self-consistent calculation

     Convergence has been achieved 


     Representation #   4 mode #   4

     Self-consistent Calculation

      iter #   1 total cpu time : 13179.1 secs   av.it.:   5.1
      thresh= 1.000E-02 alpha_mix =  0.700 |ddv_scf|^2 =  9.465E-08

      iter #   2 total cpu time : 13240.6 secs   av.it.:   9.6
      thresh= 3.076E-05 alpha_mix =  0.700 |ddv_scf|^2 =  7.903E-09

      iter #   3 total cpu time : 13302.2 secs   av.it.:   9.6
      thresh= 8.890E-06 alpha_mix =  0.700 |ddv_scf|^2 =  2.631E-10

      iter #   4 total cpu time : 13358.7 secs   av.it.:   8.6
      thresh= 1.622E-06 alpha_mix =  0.700 |ddv_scf|^2 =  4.600E-12

      iter #   5 total cpu time : 13417.2 secs   av.it.:   9.0
      thresh= 2.145E-07 alpha_mix =  0.700 |ddv_scf|^2 =  6.643E-15

     End of self-consistent calculation

     Convergence has been achieved 


     Representation #   5 mode #   5

     Self-consistent Calculation

      iter #   1 total cpu time : 13457.1 secs   av.it.:   5.0
      thresh= 1.000E-02 alpha_mix =  0.700 |ddv_scf|^2 =  1.249E-07

      iter #   2 total cpu time : 13522.4 secs   av.it.:  10.3
      thresh= 3.534E-05 alpha_mix =  0.700 |ddv_scf|^2 =  3.113E-08

      iter #   3 total cpu time : 13587.7 secs   av.it.:  10.3
      thresh= 1.764E-05 alpha_mix =  0.700 |ddv_scf|^2 =  8.179E-09

      iter #   4 total cpu time : 13651.3 secs   av.it.:  10.0
      thresh= 9.044E-06 alpha_mix =  0.700 |ddv_scf|^2 =  1.199E-10

      iter #   5 total cpu time : 13713.5 secs   av.it.:   9.7
      thresh= 1.095E-06 alpha_mix =  0.700 |ddv_scf|^2 =  6.638E-12

      iter #   6 total cpu time : 13777.6 secs   av.it.:  10.1
      thresh= 2.576E-07 alpha_mix =  0.700 |ddv_scf|^2 =  1.603E-14

      iter #   7 total cpu time : 13842.7 secs   av.it.:  10.3
      thresh= 1.266E-08 alpha_mix =  0.700 |ddv_scf|^2 =  5.707E-16

     End of self-consistent calculation

     Convergence has been achieved 


     Representation #   6 mode #   6

     Self-consistent Calculation

      iter #   1 total cpu time : 13887.4 secs   av.it.:   5.9
      thresh= 1.000E-02 alpha_mix =  0.700 |ddv_scf|^2 =  1.677E-06

      iter #   2 total cpu time : 13953.6 secs   av.it.:  10.5
      thresh= 1.295E-04 alpha_mix =  0.700 |ddv_scf|^2 =  1.250E-06

      iter #   3 total cpu time : 14016.9 secs   av.it.:   9.9
      thresh= 1.118E-04 alpha_mix =  0.700 |ddv_scf|^2 =  4.266E-09

      iter #   4 total cpu time : 14080.5 secs   av.it.:  10.0
      thresh= 6.532E-06 alpha_mix =  0.700 |ddv_scf|^2 =  2.815E-10

      iter #   5 total cpu time : 14145.0 secs   av.it.:  10.2
      thresh= 1.678E-06 alpha_mix =  0.700 |ddv_scf|^2 =  1.508E-11

      iter #   6 total cpu time : 14205.3 secs   av.it.:   9.3
      thresh= 3.883E-07 alpha_mix =  0.700 |ddv_scf|^2 =  1.210E-14

      iter #   7 total cpu time : 14268.5 secs   av.it.:   9.9
      thresh= 1.100E-08 alpha_mix =  0.700 |ddv_scf|^2 =  3.520E-16

     End of self-consistent calculation

     Convergence has been achieved 
 
     Number of q in the star =   12
     List of q in the star:
          1   0.500000000   0.000000000   0.500000000
          2  -0.500000000   0.000000000   0.500000000
          3  -0.500000000   0.000000000  -0.500000000
          4   0.500000000   0.000000000  -0.500000000
          5   0.000000000   0.500000000  -0.500000000
          6  -0.500000000   0.500000000   0.000000000
          7   0.000000000   0.500000000   0.500000000
          8   0.000000000  -0.500000000  -0.500000000
          9   0.500000000   0.500000000   0.000000000
         10   0.500000000  -0.500000000   0.000000000
         11  -0.500000000  -0.500000000   0.000000000
         12   0.000000000  -0.500000000   0.500000000

     Diagonalizing the dynamical matrix

     q = (    0.500000000   0.000000000   0.500000000 ) 

 **************************************************************************
     freq (    1) =       4.123147 [THz] =     137.533369 [cm-1]
     freq (    2) =       5.775079 [THz] =     192.635898 [cm-1]
     freq (    3) =       8.317288 [THz] =     277.434864 [cm-1]
     freq (    4) =      12.275827 [THz] =     409.477527 [cm-1]
     freq (    5) =      13.840461 [THz] =     461.668080 [cm-1]
     freq (    6) =      14.269300 [THz] =     475.972602 [cm-1]
 **************************************************************************

     Mode symmetry, C_2v (mm2)  point group:

     freq (   1-   1) =        137.5  [cm-1]   --> B_1  D_3  S_3      
     freq (   2-   2) =        192.6  [cm-1]   --> B_2  D_4  S_4      
     freq (   3-   3) =        277.4  [cm-1]   --> A_1  D_1  S_1      
     freq (   4-   4) =        409.5  [cm-1]   --> B_2  D_4  S_4      
     freq (   5-   5) =        461.7  [cm-1]   --> A_2  D_2  S_2      
     freq (   6-   6) =        476.0  [cm-1]   --> A_1  D_1  S_1      

     Calculation of q =    0.0000000  -1.0000000   0.0000000
 
     Parallelization info
     --------------------
     sticks:   dense  smooth     PW     G-vecs:    dense   smooth      PW
     Min          72      72     24                 1658     1658     325
     Max          73      73     25                 1663     1663     327
     Sum        1165    1165    397                26565    26565    5209
 
     Using Slab Decomposition
 

     Title: 
     phonons of Si in Diamond structure                                         


     bravais-lattice index     =            2
     lattice parameter (alat)  =      10.3352  a.u.
     unit-cell volume          =     275.9921 (a.u.)^3
     number of atoms/cell      =            2
     number of atomic types    =            1
     number of electrons       =         8.00
     number of Kohn-Sham states=            4
     kinetic-energy cutoff     =      80.0000  Ry
     charge density cutoff     =     320.0000  Ry
     Exchange-correlation= PBE
                           (   1   4   3   4   0   0   0)

[...]

     Self-consistent Calculation

      iter #   1 total cpu time : 14335.1 secs   av.it.:   4.8
      thresh= 1.000E-02 alpha_mix =  0.700 |ddv_scf|^2 =  2.288E-08

      iter #   2 total cpu time : 14369.2 secs   av.it.:  10.3
      thresh= 1.513E-05 alpha_mix =  0.700 |ddv_scf|^2 =  1.798E-09

      iter #   3 total cpu time : 14403.0 secs   av.it.:  10.3
      thresh= 4.241E-06 alpha_mix =  0.700 |ddv_scf|^2 =  6.008E-11

      iter #   4 total cpu time : 14434.6 secs   av.it.:   9.4
      thresh= 7.751E-07 alpha_mix =  0.700 |ddv_scf|^2 =  1.572E-13

      iter #   5 total cpu time : 14469.4 secs   av.it.:  10.7
      thresh= 3.965E-08 alpha_mix =  0.700 |ddv_scf|^2 =  3.319E-16

     End of self-consistent calculation

     Convergence has been achieved 


     Representation #   2 modes #   3   4

     Self-consistent Calculation

      iter #   1 total cpu time : 14493.0 secs   av.it.:   6.1
      thresh= 1.000E-02 alpha_mix =  0.700 |ddv_scf|^2 =  1.212E-06

      iter #   2 total cpu time : 14528.7 secs   av.it.:  11.0
      thresh= 1.101E-04 alpha_mix =  0.700 |ddv_scf|^2 =  1.688E-06

      iter #   3 total cpu time : 14562.5 secs   av.it.:  10.3
      thresh= 1.299E-04 alpha_mix =  0.700 |ddv_scf|^2 =  1.255E-09

      iter #   4 total cpu time : 14597.2 secs   av.it.:  10.6
      thresh= 3.542E-06 alpha_mix =  0.700 |ddv_scf|^2 =  9.707E-11

      iter #   5 total cpu time : 14632.5 secs   av.it.:  10.9
      thresh= 9.853E-07 alpha_mix =  0.700 |ddv_scf|^2 =  5.231E-12

      iter #   6 total cpu time : 14666.2 secs   av.it.:  10.3
      thresh= 2.287E-07 alpha_mix =  0.700 |ddv_scf|^2 =  1.434E-14

      iter #   7 total cpu time : 14700.6 secs   av.it.:  10.5
      thresh= 1.198E-08 alpha_mix =  0.700 |ddv_scf|^2 =  1.223E-16

     End of self-consistent calculation

     Convergence has been achieved 


     Representation #   3 modes #   5   6

     Self-consistent Calculation

      iter #   1 total cpu time : 14723.9 secs   av.it.:   6.0
      thresh= 1.000E-02 alpha_mix =  0.700 |ddv_scf|^2 =  2.143E-07

      iter #   2 total cpu time : 14760.7 secs   av.it.:  11.3
      thresh= 4.630E-05 alpha_mix =  0.700 |ddv_scf|^2 =  5.158E-08

      iter #   3 total cpu time : 14800.0 secs   av.it.:  11.0
      thresh= 2.271E-05 alpha_mix =  0.700 |ddv_scf|^2 =  6.315E-10

      iter #   4 total cpu time : 14834.4 secs   av.it.:  10.5
      thresh= 2.513E-06 alpha_mix =  0.700 |ddv_scf|^2 =  1.847E-11

      iter #   5 total cpu time : 14866.1 secs   av.it.:   9.4
      thresh= 4.298E-07 alpha_mix =  0.700 |ddv_scf|^2 =  4.163E-15

     End of self-consistent calculation

     Convergence has been achieved 
 
     Number of q in the star =    3
     List of q in the star:
          1   0.000000000  -1.000000000   0.000000000
          2  -1.000000000   0.000000000   0.000000000
          3   0.000000000   0.000000000  -1.000000000

     Diagonalizing the dynamical matrix

     q = (    0.000000000  -1.000000000   0.000000000 ) 

 **************************************************************************
     freq (    1) =       4.402454 [THz] =     146.850065 [cm-1]
     freq (    2) =       4.402454 [THz] =     146.850065 [cm-1]
     freq (    3) =      12.030582 [THz] =     401.297019 [cm-1]
     freq (    4) =      12.030582 [THz] =     401.297019 [cm-1]
     freq (    5) =      13.392907 [THz] =     446.739279 [cm-1]
     freq (    6) =      13.392907 [THz] =     446.739279 [cm-1]
 **************************************************************************

     Calculation of q =   -0.5000000  -1.0000000   0.0000000
 
     Parallelization info
     --------------------
     sticks:   dense  smooth     PW     G-vecs:    dense   smooth      PW
     Min          72      72     25                 1658     1658     332
     Max          73      73     27                 1663     1663     334
     Sum        1165    1165    409                26565    26565    5329
 
     Using Slab Decomposition
 

     Title: 
     phonons of Si in Diamond structure                                         


     bravais-lattice index     =            2
     lattice parameter (alat)  =      10.3352  a.u.
     unit-cell volume          =     275.9921 (a.u.)^3
     number of atoms/cell      =            2
     number of atomic types    =            1
     number of electrons       =         8.00
     number of Kohn-Sham states=            4
     kinetic-energy cutoff     =      80.0000  Ry
     charge density cutoff     =     320.0000  Ry
     Exchange-correlation= PBE
                           (   1   4   3   4   0   0   0)

     celldm(1)=  10.335200  celldm(2)=   0.000000  celldm(3)=   0.000000
     celldm(4)=   0.000000  celldm(5)=   0.000000  celldm(6)=   0.000000

     crystal axes: (cart. coord. in units of alat)
               a(1) = (  -0.500000   0.000000   0.500000 )  
               a(2) = (   0.000000   0.500000   0.500000 )  
               a(3) = (  -0.500000   0.500000   0.000000 )  

     reciprocal axes: (cart. coord. in units 2 pi/alat)
               b(1) = ( -1.000000 -1.000000  1.000000 )  
               b(2) = (  1.000000  1.000000  1.000000 )  
               b(3) = ( -1.000000  1.000000 -1.000000 )  


     PseudoPot. # 1 for Si read from file:
     ../pseudo/Si.pbe-n-kjpaw_psl.1.0.0.UPF
     MD5 check sum: c39c59da582df4a0d9f10159256ea34e
     Pseudo is Projector augmented-wave + core cor, Zval =  4.0
     Generated using &quot;atomic&quot; code by A. Dal Corso  v.6.3
     Shape of augmentation charge: PSQ
     Using radial grid of 1141 points,  6 beta functions with: 
                l(1) =   0
                l(2) =   0
                l(3) =   1
                l(4) =   1
                l(5) =   2
                l(6) =   2
     Q(r) pseudized with 0 coefficients 


     atomic species   valence    mass     pseudopotential
        Si             4.00    28.08500     Si( 1.00)

     48 Sym. Ops., with inversion, found



   Cartesian axes

     site n.     atom                  positions (alat units)
         1           Si  tau(   1) = (   0.0000000   0.0000000   0.0000000  )
         2           Si  tau(   2) = (  -0.2500000   0.2500000   0.2500000  )

     number of k points=  4096

     Number of k-points >= 100: set verbosity='high' to print them.

     Dense  grid:    26565 G-vectors     FFT dimensions: (  48,  48,  48)

     Estimated max dynamical RAM per process >      59.06 MB

     Estimated total dynamical RAM >     944.95 MB

     The potential is recalculated from file :
     ./_ph0/pwscf.save/charge-density

     Starting wfcs are    8 atomic wfcs
     Checking if some PAW data can be deallocated... 

     Band Structure Calculation
     Davidson diagonalization with overlap

     ethr =  1.25E-10,  avg # of iterations = 13.4

     total cpu time spent up to now is      834.0 secs

     End of band structure calculation

     Number of k-points >= 100: set verbosity='high' to print the bands.

     highest occupied level (ev):     5.9607

     phonons of Si in Diamond structure                                         

     bravais-lattice index     =            2
     lattice parameter (alat)  =      10.3352  a.u.
     unit-cell volume          =     275.9921 (a.u.)^3
     number of atoms/cell      =            2
     number of atomic types    =            1
     kinetic-energy cut-off    =      80.0000  Ry
     charge density cut-off    =     320.0000  Ry
     convergence threshold     =      1.0E-14
     beta                      =       0.7000
     number of iterations used =            4
     Exchange-correlation= PBE
                           (   1   4   3   4   0   0   0)


     celldm(1)=   10.33520  celldm(2)=    0.00000  celldm(3)=    0.00000
     celldm(4)=    0.00000  celldm(5)=    0.00000  celldm(6)=    0.00000

     crystal axes: (cart. coord. in units of alat)
               a(1) = ( -0.5000  0.0000  0.5000 )  
               a(2) = (  0.0000  0.5000  0.5000 )  
               a(3) = ( -0.5000  0.5000  0.0000 )  

     reciprocal axes: (cart. coord. in units 2 pi/alat)
               b(1) = ( -1.0000 -1.0000  1.0000 )  
               b(2) = (  1.0000  1.0000  1.0000 )  
               b(3) = ( -1.0000  1.0000 -1.0000 )  


     Atoms inside the unit cell: 

     Cartesian axes

     site n.  atom      mass           positions (alat units)
        1     Si  28.0850   tau(    1) = (    0.00000    0.00000    0.00000  )
        2     Si  28.0850   tau(    2) = (   -0.25000    0.25000    0.25000  )

     Computing dynamical matrix for 
                    q = (  -0.5000000  -1.0000000   0.0000000 )
 
      8 Sym.Ops. (no q -> -q+G )


     G cutoff =  865.8208  (   1659 G-vectors)     FFT grid: ( 48, 48, 48)
     number of k points=  4096

     PseudoPot. # 1 for Si read from file:
     ../pseudo/Si.pbe-n-kjpaw_psl.1.0.0.UPF
     MD5 check sum: c39c59da582df4a0d9f10159256ea34e
     Pseudo is Projector augmented-wave + core cor, Zval =  4.0
     Generated using &quot;atomic&quot; code by A. Dal Corso  v.6.3
     Shape of augmentation charge: PSQ
     Using radial grid of 1141 points,  6 beta functions with: 
                l(1) =   0
                l(2) =   0
                l(3) =   1
                l(4) =   1
                l(5) =   2
                l(6) =   2
     Q(r) pseudized with 0 coefficients 



     Atomic displacements:
     There are    3 irreducible representations

     Representation     1      2 modes -  To be done

     Representation     2      2 modes -  To be done

     Representation     3      2 modes -  To be done



     Alpha used in Ewald sum =   2.8000
     PHONON       :      1h53m CPU      4h 9m WALL



     Representation #   1 modes #   1   2

     Self-consistent Calculation

      iter #   1 total cpu time : 14994.7 secs   av.it.:   5.6
      thresh= 1.000E-02 alpha_mix =  0.700 |ddv_scf|^2 =  1.477E-07

      iter #   2 total cpu time : 15063.6 secs   av.it.:  11.3
      thresh= 3.844E-05 alpha_mix =  0.700 |ddv_scf|^2 =  7.000E-08

      iter #   3 total cpu time : 15130.1 secs   av.it.:  10.9
      thresh= 2.646E-05 alpha_mix =  0.700 |ddv_scf|^2 =  9.243E-10

      iter #   4 total cpu time : 15196.4 secs   av.it.:  10.8
      thresh= 3.040E-06 alpha_mix =  0.700 |ddv_scf|^2 =  2.293E-11

      iter #   5 total cpu time : 15258.0 secs   av.it.:   9.9
      thresh= 4.788E-07 alpha_mix =  0.700 |ddv_scf|^2 =  5.084E-14

      iter #   6 total cpu time : 15324.6 secs   av.it.:  10.8
      thresh= 2.255E-08 alpha_mix =  0.700 |ddv_scf|^2 =  3.013E-16

     End of self-consistent calculation

     Convergence has been achieved 


     Representation #   2 modes #   3   4

     Self-consistent Calculation

      iter #   1 total cpu time : 15368.5 secs   av.it.:   6.0
      thresh= 1.000E-02 alpha_mix =  0.700 |ddv_scf|^2 =  7.099E-07

      iter #   2 total cpu time : 15437.5 secs   av.it.:  11.3
      thresh= 8.426E-05 alpha_mix =  0.700 |ddv_scf|^2 =  9.655E-07

      iter #   3 total cpu time : 15503.2 secs   av.it.:  10.6
      thresh= 9.826E-05 alpha_mix =  0.700 |ddv_scf|^2 =  1.014E-09

      iter #   4 total cpu time : 15568.8 secs   av.it.:  10.6
      thresh= 3.184E-06 alpha_mix =  0.700 |ddv_scf|^2 =  3.502E-11

      iter #   5 total cpu time : 15633.1 secs   av.it.:  10.4
      thresh= 5.918E-07 alpha_mix =  0.700 |ddv_scf|^2 =  1.092E-12

      iter #   6 total cpu time : 15698.3 secs   av.it.:  10.5
      thresh= 1.045E-07 alpha_mix =  0.700 |ddv_scf|^2 =  9.380E-16

     End of self-consistent calculation

     Convergence has been achieved 


     Representation #   3 modes #   5   6

     Self-consistent Calculation

      iter #   1 total cpu time : 15743.1 secs   av.it.:   6.1
      thresh= 1.000E-02 alpha_mix =  0.700 |ddv_scf|^2 =  4.952E-07

      iter #   2 total cpu time : 15811.6 secs   av.it.:  11.3
      thresh= 7.037E-05 alpha_mix =  0.700 |ddv_scf|^2 =  2.823E-07

      iter #   3 total cpu time : 15877.6 secs   av.it.:  10.7
      thresh= 5.314E-05 alpha_mix =  0.700 |ddv_scf|^2 =  8.020E-10

      iter #   4 total cpu time : 15942.3 secs   av.it.:  10.5
      thresh= 2.832E-06 alpha_mix =  0.700 |ddv_scf|^2 =  2.364E-11

      iter #   5 total cpu time : 16001.6 secs   av.it.:   9.4
      thresh= 4.862E-07 alpha_mix =  0.700 |ddv_scf|^2 =  2.398E-13

      iter #   6 total cpu time : 16065.5 secs   av.it.:  10.3
      thresh= 4.897E-08 alpha_mix =  0.700 |ddv_scf|^2 =  2.615E-16

     End of self-consistent calculation

     Convergence has been achieved 
 
     Number of q in the star =    6
     List of q in the star:
          1  -0.500000000  -1.000000000   0.000000000
          2   0.000000000   1.000000000   0.500000000
          3   0.000000000  -1.000000000  -0.500000000
          4   0.500000000   1.000000000   0.000000000
          5  -1.000000000  -0.500000000   0.000000000
          6   0.000000000  -0.500000000  -1.000000000

     Diagonalizing the dynamical matrix

     q = (   -0.500000000  -1.000000000   0.000000000 ) 

 **************************************************************************
     freq (    1) =       6.018417 [THz] =     200.752768 [cm-1]
     freq (    2) =       6.018417 [THz] =     200.752768 [cm-1]
     freq (    3) =      10.344705 [THz] =     345.062203 [cm-1]
     freq (    4) =      10.344705 [THz] =     345.062203 [cm-1]
     freq (    5) =      13.585052 [THz] =     453.148554 [cm-1]
     freq (    6) =      13.585052 [THz] =     453.148554 [cm-1]
 **************************************************************************
 
     init_run     :      0.89s CPU      1.10s WALL (       7 calls)
     electrons    :    390.51s CPU    832.64s WALL (       7 calls)

     Called by init_run:
     wfcinit      :      0.00s CPU      0.00s WALL (       7 calls)
     potinit      :      0.18s CPU      0.36s WALL (       7 calls)
     hinit0       :      0.12s CPU      0.14s WALL (       7 calls)

     Called by electrons:
     c_bands      :    390.51s CPU    832.64s WALL (       7 calls)
     v_of_rho     :      0.01s CPU      0.02s WALL (       8 calls)
     newd         :      0.03s CPU      0.04s WALL (       8 calls)
     PAW_pot      :      0.19s CPU      0.25s WALL (       8 calls)

     Called by c_bands:
     init_us_2    :     26.37s CPU     43.59s WALL ( 1260024 calls)
     init_us_2:cp :     25.60s CPU     42.40s WALL ( 1260024 calls)
     cegterg      :    331.43s CPU    709.51s WALL (   44944 calls)

     Called by *egterg:
     cdiaghg      :     12.15s CPU     22.48s WALL (  649842 calls)
     h_psi        :   5530.48s CPU  12407.63s WALL (12409241 calls)
     s_psi        :    133.83s CPU    259.80s WALL (25162608 calls)
     g_psi        :      0.80s CPU      1.49s WALL (  604898 calls)

     Called by h_psi:
     h_psi:calbec :    168.95s CPU    334.94s WALL (12409241 calls)
     vloc_psi     :   5263.06s CPU  11879.24s WALL (12409241 calls)
     add_vuspsi   :     72.74s CPU    144.33s WALL (12409241 calls)

     General routines
     calbec       :    285.86s CPU    550.34s WALL (27324112 calls)
     fft          :      0.54s CPU      1.30s WALL (    5743 calls)
     ffts         :     11.46s CPU     23.39s WALL (  139968 calls)
     fftw         :   6111.88s CPU  13839.44s WALL (******** calls)
     davcio       :      0.20s CPU      0.28s WALL (    1224 calls)
 
     Parallel routines
 
     PHONON       :      2h 1m CPU      4h27m WALL

     INITIALIZATION: 
     phq_setup    :      0.04s CPU      0.50s WALL (       8 calls)
     phq_init     :     61.39s CPU    115.55s WALL (       8 calls)
 
     phq_init     :     61.39s CPU    115.55s WALL (       8 calls)
     set_drhoc    :      0.21s CPU      0.22s WALL (      24 calls)
     init_vloc    :      0.01s CPU      0.01s WALL (       8 calls)
     init_us_1    :      0.11s CPU      0.13s WALL (       8 calls)
     init_us_2    :     26.37s CPU     43.59s WALL ( 1260024 calls)
     newd         :      0.03s CPU      0.04s WALL (       8 calls)
     dvanqq       :      0.22s CPU      0.22s WALL (       8 calls)
     drho         :     52.01s CPU    105.75s WALL (       8 calls)
     drhous       :     47.07s CPU    100.48s WALL (       8 calls)
     nldyntot     :      2.10s CPU      2.10s WALL (       8 calls)
 
     DYNAMICAL MATRIX:
     dynmat0      :      6.89s CPU      7.21s WALL (       8 calls)
     dynmat_us    :      6.73s CPU      6.84s WALL (       8 calls)
     addusdynmat  :      0.00s CPU      0.00s WALL (       8 calls)
     d2ionq       :      0.00s CPU      0.01s WALL (       8 calls)
     dynmatcc     :      0.16s CPU      0.17s WALL (       8 calls)
     phqscf       :   6778.70s CPU  14979.41s WALL (       8 calls)
     dynmatrix    :      0.00s CPU      0.11s WALL (       8 calls)
 
     phqscf       :   6778.70s CPU  14979.41s WALL (       8 calls)
     solve_linter :   6759.89s CPU  14958.66s WALL (      32 calls)
     sth_kernel   :   6671.54s CPU  14793.99s WALL (     230 calls)
     h_prec       :      3.35s CPU      6.07s WALL (  895288 calls)
     apply_dpot_b :    459.53s CPU   1015.15s WALL (  897960 calls)
     ortho        :     24.39s CPU     48.66s WALL ( 1037688 calls)
     cgsolve      :   5609.75s CPU  12469.66s WALL ( 1037688 calls)
     incdrhoscf   :    549.88s CPU   1211.77s WALL ( 1037688 calls)
                                        0.00s GPU  ( 1037688 calls)
     addusddens   :      1.36s CPU      1.47s WALL (     257 calls)
     dv_of_drho   :      0.35s CPU      0.73s WALL (     331 calls)
     mix_pot      :      0.07s CPU      0.09s WALL (     230 calls)
     drhodv       :     14.39s CPU     14.83s WALL (      32 calls)
     psymdvscf    :      6.11s CPU      6.59s WALL (     225 calls)
     newdq        :      1.65s CPU      1.81s WALL (     230 calls)
     adddvscf     :     11.70s CPU     23.92s WALL (  897960 calls)
     drhodvus     :      0.00s CPU      0.01s WALL (      32 calls)
 
     dvqpsi_us    :     96.17s CPU    202.38s WALL (  139728 calls)
                                        0.00s GPU  (  139728 calls)
     dvqpsi_us_on :     13.00s CPU     22.99s WALL (  139728 calls)
 
     add_vuspsi   :     72.74s CPU    144.33s WALL (12409241 calls)
     addusdbec    :     17.77s CPU     34.82s WALL ( 1174968 calls)
 
     drhodvus     :      0.00s CPU      0.01s WALL (      32 calls)
 
      General routines
     calbec       :    285.86s CPU    550.34s WALL (27324112 calls)
     fft          :      0.54s CPU      1.30s WALL (    5743 calls)
     ffts         :     11.46s CPU     23.39s WALL (  139968 calls)
     fftw         :   6111.88s CPU  13839.44s WALL (******** calls)
     davcio       :      0.20s CPU      0.28s WALL (    1224 calls)
     write_rec    :      0.05s CPU     15.34s WALL (     262 calls)
 
      Additional routines
     ch_psi       :   5530.01s CPU  12319.63s WALL (11714455 calls)
     last         :    249.12s CPU    479.55s WALL (11714455 calls)
     Hesh         :      5.45s CPU     10.86s WALL (11714455 calls)
     ch_psi_all_k :    232.78s CPU    447.75s WALL (11714455 calls)
                                        0.00s GPU  (11714455 calls)
     ch_psi_calbe :     92.17s CPU    176.47s WALL (11714455 calls)
                                        0.00s GPU  (11714455 calls)
     h_psi_bgrp   :   5537.10s CPU  12420.16s WALL (12409241 calls)
     h_psi        :   5530.48s CPU  12407.63s WALL (12409241 calls)
     h_psi:pot    :   5518.85s CPU  12385.11s WALL (12409241 calls)
     h_psi:calbec :    168.95s CPU    334.94s WALL (12409241 calls)
     s_psi_bgrp   :    150.09s CPU    290.48s WALL (25162608 calls)
     s_psi        :    133.83s CPU    259.80s WALL (25162608 calls)
 
 
     PHONON       :      2h 1m CPU      4h27m WALL

 
   This run was terminated on:   0: 4: 1   8May2023            

=------------------------------------------------------------------------------=
   JOB DONE.
=------------------------------------------------------------------------------=
